# vtk DataFile Version 5.1
vtk output
ASCII
DATASET UNSTRUCTURED_GRID
POINTS 219 double
-2.4382669926 0.16192500293 0 -2.4622309208 0.15810650587 0.0084481053054 -2.4617950916 0.15835359693 0.0081016952172 
-2.4577300549 0.16020590067 0.0053276889957 -2.4573740959 0.16033260524 0.0051198299043 -2.4486470222 -0.16191719472 0.0014367030235 
-2.4487071037 0.16191570461 0.0014538529795 -2.4479811192 -0.16192500293 0.0012553350534 -2.4489760399 -0.16190759838 0.0015313279582 
-2.4495129585 0.16188380122 0.0016922999639 -2.4489760399 0.16190759838 0.0015313460026 -2.4500920773 -0.16184669733 0.0018756859936 
-2.4511079788 0.16175289452 0.0022223850247 -2.4509599209 0.16176879406 0.0021698800847 -2.4493699074 -0.16189110279 0.0016486509703 
-2.4499690533 -0.16185550392 0.0018360059476 -2.4503130913 0.16182939708 0.001948417048 -2.4508121014 -0.16178399324 0.0021180920303 
-2.4509599209 -0.16176879406 0.0021698661149 -2.4513370991 0.16172669828 0.0023046920542 -2.4513370991 -0.16172669828 0.0023046680726 
-2.4519000053 0.16165429354 0.0025144428946 -2.4515318871 -0.16170290112 0.0023761929478 -2.4519479275 -0.16164760292 0.0025330269709 
-2.4522500038 -0.16160340607 0.0026503570843 -2.4519469738 0.16164760292 0.0025328579359 -2.4525818825 -0.161551103 0.0027827420272 
-2.4525818825 0.161551103 0.0027826819569 -2.4526860714 0.16153390706 0.0028248829767 -2.4529299736 -0.16149200499 0.002925246954 
-2.4529678822 -0.16148529947 0.0029409960844 -2.4529309273 0.16149190068 0.0029254839756 -2.4536850452 -0.16134829819 0.003248564899 
-2.453469038 0.16139160097 0.0031540519558 -2.4538099766 -0.16132250428 0.0033038989641 -2.4539070129 -0.16130210459 0.0033472590148 
-2.4539070129 0.16130200028 0.0033473549411 -2.4538099766 0.16132250428 0.0033039960545 -2.4544019699 -0.16119219363 0.0035735680722 
-2.454875946 -0.16107830405 0.003798474092 -2.4542479515 0.16122730076 0.0035023519304 -2.454875946 0.16107830405 0.0037984100636 
-2.4551188946 -0.16101670265 0.003916554153 -2.4558370113 -0.1608210057 0.0042786421254 -2.4550189972 -0.16104230285 0.003867614083 
-2.4562079906 -0.16071179509 0.0044733388349 -2.4562079906 0.16071179509 0.0044733658433 -2.4558370113 0.16082090139 0.0042787310667 
-2.455796957 0.16083230078 0.0042582079768 -2.455024004 0.16104100645 0.0038702350575 -2.4565529823 -0.16060550511 0.0046589327976 
-2.456788063 -0.16053010523 0.0047884359956 -2.4565529823 0.16060550511 0.0046589327976 -2.4567890167 0.16052989662 0.0047887940891 
-2.4573290348 0.16034850478 0.005093656946 -2.4569020271 -0.16049270332 0.004851966165 -2.4573740959 -0.16033250093 0.0051200920716 
-2.4576740265 -0.16022610664 0.0052947788499 -2.459197998 -0.1596249938 0.0062419390306 -2.4595739841 -0.15946060419 0.0064915558323 
-2.4577291012 -0.16020609438 0.0053272498772 -2.4584391117 -0.15993690491 0.0057579418644 -2.458108902 0.16006469727 0.0055551538244 
-2.4585170746 -0.15990580618 0.0058068940416 -2.4585180283 0.15990559757 0.0058072730899 -2.45865798 -0.15984940529 0.0058952081017 
-2.4595739841 0.15946060419 0.0064915870316 -2.4589710236 0.15972089767 0.0060947029851 -2.45865798 0.15984930098 0.0058954311535 
-2.459635973 0.15943269432 0.0065336138941 -2.459635973 -0.15943269432 0.0065336669795 -2.4599499702 -0.1592900008 0.0067472942173 
-2.460474968 -0.15904019773 0.0071159671061 -2.460695982 -0.15893149376 0.0072745741345 -2.4598209858 0.1593490988 0.0066590141505 
-2.460474968 0.15904019773 0.0071159899235 -2.4614870548 0.15852150321 0.0078639220446 -2.4613609314 0.15858870745 0.00776829198 
-2.4607288837 0.15891510248 0.0072984849103 -2.4607288837 -0.15891520679 0.0072983722202 -2.4606599808 0.15894940495 0.0072485730052 
-2.4613609314 -0.15858879685 0.0077680791728 -2.4614350796 -0.15854929388 0.0078243846074 -2.4617938995 -0.15835359693 0.0081015974283 
-2.4621679783 -0.1581428051 0.0083973770961 -2.4623029232 0.15806519985 0.0085056461394 -2.4622309208 -0.15810659528 0.0084480429068 
-2.4628310204 0.15775029361 0.0089411428198 -2.4628310204 -0.15775069594 0.0089406473562 -2.4628939629 -0.1577116996 0.008994246833 
-2.4636130333 -0.15725520253 0.0096157323569 -2.4638381004 -0.15710639954 0.0098163271323 -2.4638381004 0.15710639954 0.0098162321374 
-2.4636130333 0.15725520253 0.0096157323569 -2.4630839825 -0.15759390593 0.0091555407271 -2.463105917 0.15758010745 0.0091743804514 
-2.4630839825 0.15759429336 0.009155003354 -2.4639189243 -0.15705169737 0.0098898401484 -2.4644889832 -0.15665690601 0.010416789912 
-2.4647340775 -0.15648129582 0.010649460368 -2.464812994 -0.1564231962 0.010726099834 -2.464812994 0.1564231962 0.01072616037 
-2.4647340775 0.15648110211 0.010649619624 -2.4644110203 0.15671209991 0.010343469679 -2.4639189243 0.15705180168 0.0098896734416 
-2.4657568932 0.15570229292 0.011669269763 -2.4655280113 0.15588240325 0.011435110122 -2.4652659893 -0.15608499944 0.011170489714 
-2.4655280113 -0.15588249266 0.011434949934 -2.4652059078 0.15613029897 0.0111112101 -2.4670519829 0.15460349619 0.013080409728 
-2.466780901 0.15484489501 0.01277272962 -2.4657568932 -0.15570229292 0.011669269763 -2.4660260677 -0.15548489988 0.011950789951 
-2.4659969807 0.15550839901 0.011920480058 -2.4663009644 -0.15525640547 0.01224538032 -2.4663009644 0.15525630116 0.012245530263 
-2.4666659832 -0.15494540334 0.012644399889 -2.4666659832 0.15494529903 0.012644479983 -2.4667680264 -0.15485629439 0.012758229859 
-2.4670519829 -0.15460370481 0.013080130331 -2.4674921036 -0.15419889987 0.013593349606 -2.4675409794 0.154153198 0.01365112979 
-2.4675409794 -0.15415340662 0.013650869951 -2.4676289558 0.15406990051 0.013756209984 -2.4677801132 -0.15392529964 0.013938509859 
-2.468198061 -0.15351240337 0.014456720091 -2.4683799744 -0.15332740545 0.014688000083 -2.4684829712 -0.15322180092 0.014819820412 
-2.4683799744 0.15332770348 0.014687639661 -2.4677801132 0.15392540395 0.013938319869 -2.4691619873 -0.15249429643 0.015723319724 
-2.4691829681 -0.15246979892 0.015753509477 -2.4691610336 0.15249480307 0.015722680837 -2.4688849449 -0.15279650688 0.015348929912 
-2.4684820175 0.15322250128 0.014818919823 -2.4695529938 -0.15205070376 0.016270600259 -2.4698140621 -0.15174350142 0.016648229212 
-2.4692308903 0.15241630375 0.015819730237 -2.4698140621 0.15174350142 0.016648210585 -2.4701991081 -0.15127469599 0.01722236909 
-2.4704399109 -0.15097039938 0.017593730241 -2.4699480534 0.15158270299 0.016845399514 -2.4699480534 -0.15158210695 0.016846120358 
-2.4706740379 0.15066620708 0.017964040861 -2.4704399109 0.15097010136 0.017594080418 -2.4699850082 0.1515378952 0.016900280491 
-2.4706749916 -0.15066580474 0.017964569852 -2.4708240032 -0.15046790242 0.018204899505 -2.4707050323 0.15062530339 0.018013749272 
-2.4710390568 -0.15017589927 0.01855899021 -2.4710390568 0.15017539263 0.018559610471 -2.4716091156 0.14936089516 0.01954334043 
-2.4714260101 0.14963009953 0.01921889931 -2.4713609219 0.14972220361 0.01910763979 -2.4713609219 -0.14972229302 0.019107550383 
-2.4714260101 -0.14963009953 0.01921889931 -2.4716091156 -0.14936099946 0.019543319941 -2.4720079899 0.14875279367 0.020274339244 
-2.4720079899 -0.14875289798 0.020274290815 -2.4720849991 0.14863230288 0.020418960601 -2.4720780849 -0.14864289761 0.020406190306 
-2.472151041 0.14852720499 0.020544860512 -2.472151041 -0.14852720499 0.020544910803 -2.4726140499 0.14775930345 0.021462980658 
-2.4726140499 -0.14775939286 0.021462859586 -2.4731459618 0.14680349827 0.022600719705 -2.4727120399 0.14758870006 0.021666459739 
-2.4726629257 0.14767460525 0.021564060822 -2.4726951122 -0.1476188004 0.021630549803 -2.4731450081 -0.14680409431 0.022600049153 
-2.4731779099 0.14674310386 0.02267245017 -2.4731769562 -0.1467435956 0.022671829909 -2.473359108 0.14639380574 0.0230868496 
-2.4735970497 0.145917207 0.023651309311 -2.4732699394 -0.14656619728 0.022882459685 -2.4735970497 -0.14591750503 0.023650990799 
-2.4736990929 0.14570650458 0.02390041016 -2.4736990929 -0.14570710063 0.023899730295 -2.4739460945 0.14517429471 0.02452892065 
-2.4740169048 0.14501640201 0.024715170264 -2.4741768837 -0.14465160668 0.025145059451 -2.4742929935 -0.14437690377 0.025468340144 
-2.474406004 -0.14410050213 0.025793340057 -2.4746110439 0.14357849956 0.026406409219 -2.4744729996 0.14393170178 0.025991760194 
-2.4738030434 -0.14548540115 0.024161780253 -2.4740169048 -0.14501589537 0.024715740234 -2.4741768837 0.14465110004 0.025145549327 
-2.474406004 0.14410069585 0.025793170556 -2.4747369289 -0.14324130118 0.026801949367 -2.4747619629 -0.14317239821 0.026882810518 
-2.4750010967 0.14249040186 0.027681529522 -2.4749410152 0.14266739786 0.027474390343 -2.4746110439 -0.14357860386 0.02640629001 
-2.4747629166 0.14317139983 0.026883909479 -2.4750010967 -0.14249010384 0.027681870386 -2.4750859737 -0.1422315985 0.027984270826 
-2.475135088 -0.14207920432 0.028162410483 -2.4753479958 0.14138279855 0.028975840658 -2.4753460884 -0.14138759673 0.02897025086 
-2.4753770828 -0.14127990603 0.029095880687 -2.4753460884 0.14138829708 0.028969440609 -2.4750859737 0.14223100245 0.0279849004 
-2.4754860401 -0.14089100063 0.029549479485 -2.4479811192 0.16192500293 0.0012553350534 -2.4475109577 0.16192500293 0.0011351279682 
-2.4475109577 -0.16192500293 0.0011351279682 -2.4462120533 0.16192500293 0.00083507422823 -2.4462120533 -0.16192500293 0.00083507422823 
-2.4449019432 0.16192500293 0.00058056111448 -2.4449019432 -0.16192500293 0.00058056111448 -2.443584919 -0.16192500293 0.00037189890281 
-2.4422609806 0.16192500293 0.00020934190252 -2.4422609806 -0.16192500293 0.00020934190252 -2.4409320354 0.16192500293 9.3088106951e-05 
-2.4409320354 -0.16192500293 9.3088106951e-05 -2.4395999908 0.16192500293 2.3279120796e-05 -2.4395999908 -0.16192500293 2.3279120796e-05 

METADATA
INFORMATION 2
NAME L2_NORM_RANGE LOCATION vtkDataArray
DATA 2 2.44364 2.47967 
NAME L2_NORM_FINITE_RANGE LOCATION vtkDataArray
DATA 2 2.44364 2.47967 

CELLS 173 344
OFFSETS vtktypeint64
0 2 4 6 8 10 12 14 16 
18 20 22 24 26 28 30 32 34 
36 38 40 42 44 46 48 50 52 
54 56 58 60 62 64 66 68 70 
72 74 76 78 80 82 84 86 88 
90 92 94 96 98 100 102 104 106 
108 110 112 114 116 118 120 122 124 
126 128 130 132 134 136 138 140 142 
144 146 148 150 152 154 156 158 160 
162 164 166 168 170 172 174 176 178 
180 182 184 186 188 190 192 194 196 
198 200 202 204 206 208 210 212 214 
216 218 220 222 224 226 228 230 232 
234 236 238 240 242 244 246 248 250 
252 254 256 258 260 262 264 266 268 
270 272 274 276 278 280 282 284 286 
288 290 292 294 296 298 300 302 304 
306 308 310 312 314 316 318 320 322 
324 326 328 330 332 334 336 338 340 
342 344 
CONNECTIVITY vtktypeint64
1 2 3 4 7 5 9 10 12 
13 8 14 14 15 13 16 11 17 
18 20 21 19 20 22 22 23 24 
26 27 25 26 29 31 28 30 32 
33 31 32 34 36 37 35 38 38 
39 40 36 41 40 42 43 44 42 
43 45 46 47 48 49 45 50 50 
51 52 46 53 52 54 53 55 56 
56 57 58 59 57 60 60 61 62 
3 61 63 64 62 65 58 66 67 
67 68 70 71 71 72 72 73 74 
69 75 74 76 77 77 78 73 79 
78 80 79 81 2 76 82 83 83 
84 85 1 87 85 86 88 88 89 
90 91 92 93 94 90 93 95 89 
94 96 87 91 97 97 98 98 99 
99 100 102 103 103 104 104 92 105 
106 100 107 107 108 109 101 106 109 
110 111 108 112 112 113 114 105 113 
115 116 114 115 117 118 116 119 120 
120 121 122 110 124 122 123 125 125 
126 127 128 126 127 129 130 128 134 
134 131 133 135 132 136 136 137 139 
138 140 141 142 139 137 143 143 140 
144 145 145 146 141 147 147 148 148 
150 151 149 152 153 154 151 150 155 
153 154 155 156 156 157 158 152 157 
159 160 158 159 161 162 160 164 162 
163 165 166 167 168 164 169 170 173 
171 174 173 172 175 175 176 177 174 
176 178 179 177 181 182 182 183 184 
185 178 186 186 187 188 180 187 181 
189 188 185 189 190 191 192 193 183 
194 194 190 195 184 193 195 191 196 
196 197 197 198 199 200 200 201 198 
200 202 203 203 192 201 204 6 205 
206 208 209 207 208 210 211 209 213 
214 214 212 216 214 215 217 218 216 
217 0 
CELL_TYPES 172
3
3
3
3
3
3
3
3
3
3
3
3
3
3
3
3
3
3
3
3
3
3
3
3
3
3
3
3
3
3
3
3
3
3
3
3
3
3
3
3
3
3
3
3
3
3
3
3
3
3
3
3
3
3
3
3
3
3
3
3
3
3
3
3
3
3
3
3
3
3
3
3
3
3
3
3
3
3
3
3
3
3
3
3
3
3
3
3
3
3
3
3
3
3
3
3
3
3
3
3
3
3
3
3
3
3
3
3
3
3
3
3
3
3
3
3
3
3
3
3
3
3
3
3
3
3
3
3
3
3
3
3
3
3
3
3
3
3
3
3
3
3
3
3
3
3
3
3
3
3
3
3
3
3
3
3
3
3
3
3
3
3
3
3
3
3
3
3
3
3
3
3

CELL_DATA 172
SCALARS STLSolidLabeling float
LOOKUP_TABLE default
0 0 0 0 0 0 0 0 0 
0 0 0 0 0 0 0 0 0 
0 0 0 0 0 0 0 0 0 
0 0 0 0 0 0 0 0 0 
0 0 0 0 0 0 0 0 0 
0 0 0 0 0 0 0 0 0 
0 0 0 0 0 0 0 0 0 
0 0 0 0 0 0 0 0 0 
0 0 0 0 0 0 0 0 0 
0 0 0 0 0 0 0 0 0 
0 0 0 0 0 0 0 0 0 
0 0 0 0 0 0 0 0 0 
0 0 0 0 0 0 0 0 0 
0 0 0 0 0 0 0 0 0 
0 0 0 0 0 0 0 0 0 
0 0 0 0 0 0 0 0 0 
0 0 0 0 0 0 0 0 0 
0 0 0 0 0 0 0 0 0 
0 0 0 0 0 0 0 0 0 
0 
METADATA
INFORMATION 0

FIELD FieldData 1
vtkOriginalCellIds 1 172 vtkIdType
24 25 28 31 34 35 36 40 41 
44 45 46 47 50 51 53 55 56 
57 58 60 62 63 64 65 66 69 
70 71 73 75 76 77 78 79 82 
83 84 85 86 87 88 89 91 92 
93 97 98 99 100 101 102 103 104 
105 107 109 110 111 112 114 115 116 
117 118 119 120 121 123 124 125 126 
127 129 130 131 132 133 134 135 136 
137 138 139 140 141 142 143 144 147 
148 149 151 152 153 154 156 157 161 
162 164 165 166 168 169 170 171 172 
173 174 176 177 179 180 181 182 183 
184 185 186 187 188 189 190 191 193 
194 196 198 200 203 204 205 206 207 
208 209 211 212 213 214 215 216 217 
218 219 220 221 222 223 224 225 226 
227 228 229 230 232 233 234 237 272 
275 277 278 279 284 285 287 288 289 
290 
POINT_DATA 219
FIELD FieldData 1
vtkOriginalPointIds 1 219 vtkIdType
16 26 27 28 29 30 33 34 35 
37 38 40 41 42 43 44 46 47 
48 49 50 51 52 53 54 55 56 
57 58 59 60 61 62 63 64 65 
66 67 68 69 70 71 72 73 75 
76 77 78 79 80 81 82 83 84 
85 86 87 88 89 90 91 92 93 
94 95 96 97 98 99 100 101 102 
103 104 105 106 107 108 109 110 111 
112 113 114 115 116 117 118 119 120 
121 122 123 124 125 126 127 128 129 
130 131 132 133 134 135 136 137 138 
139 140 141 142 143 144 145 146 147 
148 149 150 151 152 153 154 155 156 
157 158 159 161 162 163 164 166 167 
168 169 170 171 172 173 174 175 176 
177 178 179 180 181 182 183 184 185 
186 187 188 189 190 191 192 193 194 
195 196 197 198 200 201 202 203 204 
205 206 207 208 209 210 211 212 213 
214 215 216 217 218 219 220 221 222 
223 224 225 226 227 228 229 230 231 
232 233 234 235 236 237 242 273 274 
275 276 277 278 279 281 282 283 284 
285 286 287 
