# vtk DataFile Version 5.1
vtk output
ASCII
DATASET UNSTRUCTURED_GRID
POINTS 2 float
-1.82878 -0.161925 0.4508 -1.82878 0.161925 0.4508 
METADATA
INFORMATION 2
NAME L2_NORM_RANGE LOCATION vtkDataArray
DATA 2 1.89047 1.89047 
NAME L2_NORM_FINITE_RANGE LOCATION vtkDataArray
DATA 2 1.89047 1.89047 

CELLS 3 2
OFFSETS vtktypeint64
0 1 2 
CONNECTIVITY vtktypeint64
0 1 
CELL_TYPES 2
1
1

POINT_DATA 2
FIELD FieldData 1
vtkOriginalPointIds 1 2 vtkIdType
6094 6165 
