# vtk DataFile Version 5.1
vtk output
ASCII
DATASET UNSTRUCTURED_GRID
POINTS 236 double
-2.4764809608 -0.13342499733 0.22847619653 -2.4764020443 -0.13342499733 0.23300549388 -2.4764020443 0.13342499733 0.23300549388 
-2.4764809608 0.13342499733 0.22847619653 -2.4761641026 -0.13342499733 0.23754020035 -2.4761641026 0.13342499733 0.23754020035 
-2.4757659435 -0.13342499733 0.24208569527 -2.4757659435 0.13342499733 0.24208569527 -2.4752058983 -0.13342499733 0.24664740264 
-2.4752058983 0.13342499733 0.24664740264 -2.4744799137 -0.13342499733 0.2512306869 -2.4744799137 0.13342499733 0.2512306869 
-2.4735839367 -0.13342499733 0.25584119558 -2.4735839367 0.13342499733 0.25584119558 -2.4725120068 -0.13342499733 0.2604841888 
-2.4725120068 0.13342499733 0.2604841888 -2.4712569714 -0.13342499733 0.26516529918 -2.4712569714 0.13342499733 0.26516529918 
-2.4698119164 -0.13342499733 0.26988980174 -2.4698119164 0.13342499733 0.26988980174 -2.4681680202 -0.13342499733 0.27466338873 
-2.4681680202 0.13342499733 0.27466338873 -2.4663150311 -0.13342499733 0.27949139476 -2.4663150311 0.13342499733 0.27949139476 
-2.4642388821 -0.13342499733 0.28437939286 -2.4642388821 0.13342499733 0.28437939286 -2.4619290829 -0.13342499733 0.28933250904 
-2.4619290829 0.13342499733 0.28933250904 -2.4593689442 -0.13342499733 0.29435619712 -2.4593689442 0.13342499733 0.29435619712 
-2.4565420151 -0.13342499733 0.29945540428 -2.4565420151 0.13342499733 0.29945540428 -2.4534289837 -0.13342499733 0.30463498831 
-2.4534289837 0.13342499733 0.30463498831 -2.4500091076 -0.13342499733 0.30989968777 -2.4500091076 0.13342499733 0.30989968777 
-2.4462590218 -0.13342499733 0.31525340676 -2.4462590218 0.13342499733 0.31525340676 -2.4421539307 -0.13342499733 0.32069981098 
-2.4421539307 0.13342499733 0.32069981098 -2.4376649857 -0.13342499733 0.32624170184 -2.4376649857 0.13342499733 0.32624170184 
-2.4327609539 -0.13342499733 0.3318811059 -2.4327609539 0.13342499733 0.3318811059 -2.4274089336 -0.13342499733 0.33761879802 
-2.4274089336 0.13342499733 0.33761879802 -2.42157197 -0.13342499733 0.34345421195 -2.42157197 0.13342499733 0.34345421195 
-2.4152100086 -0.13342499733 0.34938499331 -2.4152100086 0.13342499733 0.34938499331 -2.4082810879 -0.13342499733 0.35540679097 
-2.4082810879 0.13342499733 0.35540679097 -2.4007380009 -0.13342499733 0.36151251197 -2.4007380009 0.13342499733 0.36151251197 
-2.3925349712 -0.13342499733 0.36769199371 -2.3925349712 0.13342499733 0.36769199371 -2.3836209774 -0.13342499733 0.37393170595 
-2.3836209774 0.13342499733 0.37393170595 -2.3739440441 -0.13342499733 0.38021358848 -2.3739440441 0.13342499733 0.38021358848 
-2.3634519577 -0.13342499733 0.38651511073 -2.3634519577 0.13342499733 0.38651511073 -2.3520948887 -0.13342499733 0.39280799031 
-2.3520948887 0.13342499733 0.39280799031 -2.3398230076 -0.13342499733 0.39905819297 -2.3398230076 0.13342499733 0.39905819297 
-2.3265919685 -0.13342499733 0.40522500873 -2.3265919685 0.13342499733 0.40522500873 -2.3123660088 -0.13342499733 0.41126090288 
-2.3123660088 0.13342499733 0.41126090288 -2.2971169949 -0.13342499733 0.41711169481 -2.2971169949 0.13342499733 0.41711169481 
-2.2808310986 -0.13342499733 0.42271658778 -2.2808310986 0.13342499733 0.42271658778 -2.2635109425 -0.13342499733 0.42800930142 
-2.2635109425 0.13342499733 0.42800930142 -2.2456181049 -0.13342499733 0.43280899525 -2.2456181049 0.13342499733 0.43280899525 
-2.2273249626 -0.13342499733 0.43706288934 -2.2273249626 0.13342499733 0.43706288934 -2.2086789608 -0.13342499733 0.4407595098 
-2.2086789608 0.13342499733 0.4407595098 -2.1897308826 -0.13342499733 0.44388911128 -2.1897308826 0.13342499733 0.44388911128 
-2.1705310345 -0.13342499733 0.44644320011 -2.1705310345 0.13342499733 0.44644320011 -2.151129961 -0.13342499733 0.44841501117 
-2.151129961 0.13342499733 0.44841501117 -2.131581068 -0.13342499733 0.44979929924 -2.131581068 0.13342499733 0.44979929924 
-2.1119349003 -0.13342499733 0.45059230924 -2.1119349003 0.13342499733 0.45059230924 -2.0954709053 -0.13342499733 0.45080000162 
-2.0954709053 0.13342499733 0.45080000162 -2.4764809608 -0.13342499733 0.038214299828 -2.4764809608 0.13342499733 0.038214299828 
-2.4382669926 0.16192500293 0 0 0.16192500293 0 -2.4382669926 -0.16192500293 0 
0 -0.16192500293 0 0 0.16192500293 0.45080000162 0 -0.16192500293 0.45080000162 
-1.8287810087 0.16192500293 0.45080000162 -2.0954709053 0.16192500293 0.42230001092 -2.4467890263 0.16192500293 0.00096235790988 
-2.4479811192 0.16192500293 0.0012553350534 -2.4479811192 0.16192500293 0.22847619653 -2.1223499775 0.16192500293 0.42172071338 
-2.1110420227 0.16192500293 0.42210578918 -2.0997080803 0.16192500293 0.4222855866 -2.4442539215 0.16192500293 0.25590500236 
-2.4432570934 0.16192500293 0.25934201479 -2.4412610531 0.16192500293 0.26526111364 -2.372823 0.16192500293 0.34675589204 
-2.3664889336 0.16192500293 0.35110551119 -2.440721035 0.16192500293 7.8864650277e-05 -2.4419438839 0.16192500293 0.00017736920563 
-2.1560540199 0.16192500293 0.41934001446 -2.1448628902 0.16192500293 0.42033728957 -2.1336259842 0.16192500293 0.42113101482 
-2.4465250969 0.16192500293 0.24563449621 -2.4458858967 0.16192500293 0.24905399978 -2.4451289177 0.16192500293 0.25247660279 
-2.3904359341 0.16192500293 0.33317491412 -2.3847980499 0.16192500293 0.3377892077 -2.3789260387 0.16192500293 0.3423165977 
-2.1892869473 0.16192500293 0.41512811184 -2.1782729626 0.16192500293 0.41673541069 -2.1671929359 0.16192500293 0.41813930869 
-2.4474549294 0.16192500293 0.23879280686 -2.4470479488 0.16192500293 0.24221509695 -2.4348599911 0.16192500293 0.27972760797 
-2.4383890629 0.16192500293 0.27236840129 -2.4479219913 0.16192500293 0.23192669451 -2.221873045 0.16192500293 0.4090833962 
-2.2110939026 0.16192500293 0.41130259633 -2.2002298832 0.16192500293 0.41331729293 -2.3958399296 0.16192500293 0.32847449183 
-2.4399020672 0.16192500293 0.26878559589 -2.4181818962 0.16192500293 0.30506309867 -2.4145679474 0.16192500293 0.30941349268 
-2.4106318951 0.16192500293 0.31385758519 -2.4303600788 0.16192500293 0.28774210811 -2.4277029037 0.16192500293 0.29197019339 
-2.4328219891 0.16192500293 0.28351289034 -2.4248449802 0.16192500293 0.29619890451 -2.4217801094 0.16192500293 0.3004296124 
-2.4059400558 0.16192500293 0.31881630421 -2.4010090828 0.16192500293 0.32368838787 -2.2818739414 0.16192500293 0.39229089022 
-2.2725028992 0.16192500293 0.39545568824 -2.2629590034 0.16192500293 0.39845860004 -2.2536289692 0.16192500293 0.40118971467 
-2.2431468964 0.16192500293 0.40402820706 -2.2325589657 0.16192500293 0.40665900707 -2.308907032 0.16192500293 0.3818424046 
-2.300080061 0.16192500293 0.38548269868 -2.2910680771 0.16192500293 0.38896599412 -2.3342280388 0.16192500293 0.36998930573 
-2.3259849548 0.16192500293 0.37409499288 -2.3175430298 0.16192500293 0.37804621458 -2.3577148914 0.16192500293 0.35674419999 
-2.3500978947 0.16192500293 0.36131438613 -2.3422670364 0.16192500293 0.36572921276 -2.3651149273 0.16192500293 0.35201710463 
-1.8287810087 -0.16192500293 0.45080000162 -2.4479811192 -0.16192500293 0.22847619653 -2.4479811192 -0.16192500293 0.0012553350534 
-2.4419438839 -0.16192500293 0.00017736920563 -2.0954709053 -0.16192500293 0.42230001092 -2.1063199043 -0.16192500293 0.42220568657 
-2.2536289692 -0.16192500293 0.40118971467 -2.2620329857 -0.16192500293 0.39873871207 -2.2703230381 -0.16192500293 0.39616060257 
-2.2785000801 -0.16192500293 0.39345580339 -2.1171169281 -0.16192500293 0.42192450166 -2.1278600693 -0.16192500293 0.42145830393 
-2.1385478973 -0.16192500293 0.42080891132 -2.440721035 -0.16192500293 7.8864650277e-05 -2.2865600586 -0.16192500293 0.39062431455 
-2.2945020199 -0.16192500293 0.38766568899 -2.4412610531 -0.16192500293 0.26526111364 -2.1491780281 -0.16192500293 0.41997739673 
-2.1597480774 -0.16192500293 0.41896501184 -2.1702549458 -0.16192500293 0.4177724123 -2.442401886 -0.16192500293 0.26200839877 
-2.4434299469 -0.16192500293 0.25877350569 -2.4443490505 -0.16192500293 0.25555449724 -2.1806979179 -0.16192500293 0.41639968753 
-2.1910738945 -0.16192500293 0.41484719515 -2.2013800144 -0.16192500293 0.41311439872 -2.4451599121 -0.16192500293 0.25234898925 
-2.4458649158 -0.16192500293 0.24915480614 -2.4464681149 -0.16192500293 0.24596959352 -2.2116129398 -0.16192500293 0.41120070219 
-2.2217719555 -0.16192500293 0.40910509229 -2.2318539619 -0.16192500293 0.40682598948 -2.3100230694 -0.16192500293 0.38136529922 
-2.3175969124 -0.16192500293 0.37802180648 -2.325042963 -0.16192500293 0.37454798818 -2.4181818962 -0.16192500293 0.30506309867 
-2.4209969044 -0.16192500293 0.30146589875 -2.4236500263 -0.16192500293 0.29788210988 -2.4261460304 -0.16192500293 0.2943111062 
-2.2418549061 -0.16192500293 0.40436181426 -2.2517719269 -0.16192500293 0.40170991421 -2.4166250229 -0.16192500293 0.30697101355 
-2.3651149273 -0.16192500293 0.35201710463 -2.3706190586 -0.16192500293 0.34829768538 -2.4469680786 -0.16192500293 0.24279080331 
-2.4473679066 -0.16192500293 0.23961620033 -2.4476668835 -0.16192500293 0.23644299805 -2.4478669167 -0.16192500293 0.2332687974 
-2.4479680061 -0.16192500293 0.23009090126 -2.4284889698 -0.16192500293 0.29075220227 -2.4306840897 -0.16192500293 0.28720441461 
-2.4327349663 -0.16192500293 0.28366661072 -2.3323600292 -0.16192500293 0.37094208598 -2.3395431042 -0.16192500293 0.36720240116 
-2.3465890884 -0.16192500293 0.36332640052 -2.3759789467 -0.16192500293 0.34449270368 -2.3811910152 -0.16192500293 0.34060171247 
-2.3862540722 -0.16192500293 0.33662378788 -2.3534948826 -0.16192500293 0.35931149125 -2.3602559566 -0.16192500293 0.3551543057 
-2.4346470833 -0.16192500293 0.28013750911 -2.4364221096 -0.16192500293 0.27661558986 -2.4380640984 -0.16192500293 0.27309909463 
-2.3911650181 -0.16192500293 0.33255809546 -2.3959200382 -0.16192500293 0.3284034133 -2.4005160332 -0.16192500293 0.32415819168 
-2.3023240566 -0.16192500293 0.3845795989 -2.4395749569 -0.16192500293 0.26958608627 -2.4048850536 -0.16192500293 0.31988659501 
-2.4090220928 -0.16192500293 0.31559810042 -2.4129340649 -0.16192500293 0.31129300594 
METADATA
INFORMATION 2
NAME L2_NORM_RANGE LOCATION vtkDataArray
DATA 2 0.161925 2.49115 
NAME L2_NORM_FINITE_RANGE LOCATION vtkDataArray
DATA 2 0.161925 2.49115 

CELLS 212 422
OFFSETS vtktypeint64
0 2 4 6 8 10 12 14 16 
18 20 22 24 26 28 30 32 34 
36 38 40 42 44 46 48 50 52 
54 56 58 60 62 64 66 68 70 
72 74 76 78 80 82 84 86 88 
90 92 94 96 98 100 102 104 106 
108 110 112 114 116 118 120 122 124 
126 128 130 132 134 136 138 140 142 
144 146 148 150 152 154 156 158 160 
162 164 166 168 170 172 174 176 178 
180 182 184 186 188 190 192 194 196 
198 200 202 204 206 208 210 212 214 
216 218 220 222 224 226 228 230 232 
234 236 238 240 242 244 246 248 250 
252 254 256 258 260 262 264 266 268 
270 272 274 276 278 280 282 284 286 
288 290 292 294 296 298 300 302 304 
306 308 310 312 314 316 318 320 322 
324 326 328 330 332 334 336 338 340 
342 344 346 348 350 352 354 356 358 
360 362 364 366 368 370 372 374 376 
378 380 382 384 386 388 390 392 394 
396 398 400 402 404 406 408 410 412 
414 416 418 420 422 
CONNECTIVITY vtktypeint64
0 1 2 3 1 4 5 2 4 
6 7 5 6 8 9 7 8 10 
11 9 13 11 12 14 15 13 14 
16 16 18 19 17 21 19 20 22 
23 21 22 24 25 23 24 26 27 
25 26 28 28 30 31 29 30 32 
33 31 32 34 35 33 34 36 37 
35 36 38 39 37 38 40 41 39 
40 42 43 41 42 44 45 43 44 
46 47 45 46 48 49 47 48 50 
51 49 50 52 53 51 52 54 55 
53 54 56 57 55 56 58 59 57 
58 60 61 59 60 62 63 61 62 
64 65 63 64 66 67 65 66 68 
69 67 68 70 71 69 70 72 73 
71 72 74 75 73 74 76 77 75 
76 78 79 77 78 80 81 79 80 
82 83 81 82 84 85 83 84 86 
87 85 86 88 89 87 88 90 91 
89 90 92 93 91 94 0 95 94 
3 95 98 96 97 99 97 100 100 
101 101 99 103 102 104 105 105 106 
107 108 108 109 109 103 110 111 113 
114 115 116 117 118 118 119 119 107 
120 121 121 122 123 124 124 125 125 
113 126 127 127 128 128 117 129 130 
106 133 134 135 135 136 136 126 137 
123 112 138 138 132 140 141 142 143 
144 142 143 145 131 144 145 146 146 
139 141 147 147 148 148 137 149 150 
150 151 151 152 152 153 153 154 154 
134 155 156 156 157 157 149 158 159 
159 160 160 155 161 162 162 163 163 
158 164 161 102 93 92 165 166 167 
169 170 171 172 172 173 173 174 170 
175 175 176 176 177 165 169 168 178 
174 179 179 180 177 182 182 183 183 
184 181 185 185 186 186 187 184 188 
188 189 189 190 191 192 190 194 194 
195 195 196 197 198 198 199 200 201 
201 202 202 203 196 204 204 205 207 
208 193 209 209 210 211 212 212 213 
203 214 215 216 199 217 217 218 218 
219 208 220 220 221 221 222 219 223 
223 224 225 226 226 227 222 228 228 
229 229 230 180 231 231 197 227 232 
230 233 233 234 234 235 235 206 
CELL_TYPES 211
3
3
3
3
3
3
3
3
3
3
3
3
3
3
3
3
3
3
3
3
3
3
3
3
3
3
3
3
3
3
3
3
3
3
3
3
3
3
3
3
3
3
3
3
3
3
3
3
3
3
3
3
3
3
3
3
3
3
3
3
3
3
3
3
3
3
3
3
3
3
3
3
3
3
3
3
3
3
3
3
3
3
3
3
3
3
3
3
3
3
3
3
3
3
3
3
3
3
3
3
3
3
3
3
3
3
3
3
3
3
3
3
3
3
3
3
3
3
3
3
3
3
3
3
3
3
3
3
3
3
3
3
3
3
3
3
3
3
3
3
3
3
3
3
3
3
3
3
3
3
3
3
3
3
3
3
3
3
3
3
3
3
3
3
3
3
3
3
3
3
3
3
3
3
3
3
3
3
3
3
3
3
3
3
3
3
3
3
3
3
3
3
3
3
3
3
3
3
3
3
3
3
3
3
3
3
3
3
3
3
3

CELL_DATA 211
SCALARS STLSolidLabeling float
LOOKUP_TABLE default
0 0 0 0 0 0 0 0 0 
0 0 0 0 0 0 0 0 0 
0 0 0 0 0 0 0 0 0 
0 0 0 0 0 0 0 0 0 
0 0 0 0 0 0 0 0 0 
0 0 0 0 0 0 0 0 0 
0 0 0 0 0 0 0 0 0 
0 0 0 0 0 0 0 0 0 
0 0 0 0 0 0 0 0 0 
0 0 0 0 0 0 0 0 0 
0 0 0 0 0 0 0 0 0 
0 0 0 0 0 0 0 0 0 
0 0 0 0 0 0 0 0 0 
0 0 0 0 0 0 0 0 0 
0 0 0 0 0 0 0 0 0 
0 0 0 0 0 0 0 0 0 
0 0 0 0 0 0 0 0 0 
0 0 0 0 0 0 0 0 0 
0 0 0 0 0 0 0 0 0 
0 0 0 0 0 0 0 0 0 
0 0 0 0 0 0 0 0 0 
0 0 0 0 0 0 0 0 0 
0 0 0 0 0 0 0 0 0 
0 0 0 0 
METADATA
INFORMATION 0

FIELD FieldData 1
vtkOriginalCellIds 1 211 vtkIdType
0 1 2 3 4 5 6 7 8 
9 11 12 13 14 16 17 19 20 
21 22 23 24 25 26 28 29 30 
31 32 33 34 35 36 37 38 39 
40 41 42 43 44 45 46 47 48 
49 50 51 52 53 54 55 56 57 
58 59 60 61 62 63 64 65 66 
67 68 69 70 71 72 73 74 75 
76 77 78 79 80 81 82 83 84 
85 86 87 88 89 90 91 92 93 
94 96 97 99 100 101 103 104 105 
106 107 108 109 112 117 119 120 121 
122 123 125 126 127 128 129 130 132 
136 138 139 140 141 142 143 145 146 
147 148 149 150 151 152 153 154 155 
156 157 158 159 160 161 162 163 164 
165 166 167 168 169 172 173 174 177 
182 183 184 185 186 187 188 189 192 
193 194 196 197 198 199 200 201 202 
203 204 206 208 209 210 211 212 213 
214 215 216 217 220 221 222 224 225 
227 229 230 231 232 233 234 235 236 
237 240 241 242 243 244 245 246 248 
249 250 251 252 
POINT_DATA 236
FIELD FieldData 1
vtkOriginalPointIds 1 236 vtkIdType
0 1 2 3 4 5 6 7 8 
9 10 11 12 13 14 15 16 17 
18 19 20 21 22 23 24 25 26 
27 28 29 30 31 32 33 34 35 
36 37 38 39 40 41 42 43 44 
45 46 47 48 49 50 51 52 53 
54 55 56 57 58 59 60 61 62 
63 64 65 66 67 68 69 70 71 
72 73 74 75 76 77 78 79 80 
81 82 83 84 85 86 87 88 89 
90 91 92 93 94 95 96 97 98 
99 100 101 102 103 104 105 106 107 
108 109 110 111 113 114 115 120 121 
122 123 124 125 126 127 128 129 130 
131 132 133 135 136 138 139 140 141 
142 143 144 145 146 147 148 149 150 
151 152 153 154 155 156 157 158 159 
160 161 162 163 164 165 166 167 168 
169 170 171 172 175 176 179 180 181 
182 183 184 185 186 187 188 190 191 
192 194 195 196 197 198 199 200 201 
202 203 204 205 206 207 208 209 210 
211 212 213 214 215 216 217 218 219 
220 221 222 223 224 225 226 227 228 
229 230 231 232 233 234 235 236 237 
238 239 240 241 242 243 244 245 246 
247 248 
