# vtk DataFile Version 5.1
vtk output
ASCII
DATASET UNSTRUCTURED_GRID
POINTS 8 double
-2.4382669926 0.16192500293 0 0 0.16192500293 0 -2.4382669926 -0.16192500293 0 
0 -0.16192500293 0 0 0.16192500293 0.45080000162 0 -0.16192500293 0.45080000162 
-1.8287810087 0.16192500293 0.45080000162 -1.8287810087 -0.16192500293 0.45080000162 
METADATA
INFORMATION 2
NAME L2_NORM_RANGE LOCATION vtkDataArray
DATA 2 0.161925 2.44364 
NAME L2_NORM_FINITE_RANGE LOCATION vtkDataArray
DATA 2 0.161925 2.44364 

CELLS 9 16
OFFSETS vtktypeint64
0 2 4 6 8 10 12 14 16 

CONNECTIVITY vtktypeint64
0 1 1 3 3 2 1 4 4 
5 5 3 6 4 7 5 
CELL_TYPES 8
3
3
3
3
3
3
3
3

CELL_DATA 8
SCALARS STLSolidLabeling float
LOOKUP_TABLE default
0 0 0 0 0 0 0 0 
METADATA
INFORMATION 0

FIELD FieldData 1
vtkOriginalCellIds 1 8 vtkIdType
95 97 98 99 100 101 102 175 
POINT_DATA 8
FIELD FieldData 1
vtkOriginalPointIds 1 8 vtkIdType
96 97 98 99 100 101 102 172 
