# vtk DataFile Version 5.1
vtk output
ASCII
DATASET UNSTRUCTURED_GRID
POINTS 272 double
-2.4756350517 0.14031919837 0.030215829611 -2.4764809608 0.13342499733 0.038214299828 -2.4764809608 0.13345059752 0.038184709847 
-2.4764640331 0.13441960514 0.037062518299 -2.4764630795 0.13444820046 0.037029400468 -2.4764580727 0.13457660377 0.036880709231 
-2.4763250351 0.13640369475 0.034763950855 -2.4763810635 0.13581469655 0.035446479917 -2.4763879776 0.13572649658 0.035548668355 
-2.4764120579 0.13541290164 0.035912100226 -2.4762721062 0.1368726939 0.034220110625 -2.4762330055 0.13717660308 0.033867709339 
-2.4760479927 0.13837349415 0.032478641719 -2.4761090279 0.1380136013 0.032896488905 -2.4761989117 0.13742209971 0.033582881093 
-2.4762039185 0.13739140332 0.033618520945 -2.475976944 0.13875870407 0.032031111419 -2.4758999348 0.13914769888 0.031579080969 
-2.475646019 0.14027309418 0.030269559473 -2.4756929874 0.14007939398 0.030495079234 -2.4758579731 0.13934969902 0.031344119459 
-2.4750859737 0.14223100245 0.0279849004 -2.4753460884 0.14138829708 0.028969440609 -2.4753479958 0.14138279855 0.028975840658 
-2.4753770828 0.14128039777 0.029095329344 -2.4750010967 0.14249040186 0.027681529522 -2.4749410152 0.14266739786 0.027474390343 
-2.474406004 0.14410069585 0.025793170556 -2.4744729996 0.14393170178 0.025991760194 -2.4746110439 0.14357849956 0.026406409219 
-2.4747629166 0.14317139983 0.026883909479 -2.4741768837 0.14465110004 0.025145549327 -2.4740169048 0.14501640201 0.024715170264 
-2.4739460945 0.14517429471 0.02452892065 -2.4736990929 0.14570650458 0.02390041016 -2.4731459618 0.14680349827 0.022600719705 
-2.4731779099 0.14674310386 0.02267245017 -2.473359108 0.14639380574 0.0230868496 -2.4735970497 0.145917207 0.023651309311 
-2.4727120399 0.14758870006 0.021666459739 -2.4726629257 0.14767460525 0.021564060822 -2.4726140499 0.14775930345 0.021462980658 
-2.472151041 0.14852720499 0.020544860512 -2.4720849991 0.14863230288 0.020418960601 -2.4720079899 0.14875279367 0.020274339244 
-2.4710390568 0.15017539263 0.018559610471 -2.4713609219 0.14972220361 0.01910763979 -2.4714260101 0.14963009953 0.01921889931 
-2.4716091156 0.14936089516 0.01954334043 -2.4707050323 0.15062530339 0.018013749272 -2.4706740379 0.15066620708 0.017964040861 
-2.4698140621 0.15174350142 0.016648210585 -2.4699480534 0.15158270299 0.016845399514 -2.4699850082 0.1515378952 0.016900280491 
-2.4704399109 0.15097010136 0.017594080418 -2.4692308903 0.15241630375 0.015819730237 -2.4691829681 0.15247039497 0.015752820298 
-2.4691610336 0.15249480307 0.015722680837 -2.4684820175 0.15322250128 0.014818919823 -2.4684460163 0.15326030552 0.014771790244 
-2.4683799744 0.15332770348 0.014687639661 -2.4670519829 0.15460349619 0.013080409728 -2.4675409794 0.154153198 0.01365112979 
-2.4676289558 0.15406990051 0.013756209984 -2.4677801132 0.15392540395 0.013938319869 -2.466780901 0.15484489501 0.01277272962 
-2.4666659832 0.15494529903 0.012644479983 -2.4655280113 0.15588240325 0.011435110122 -2.4657568932 0.15570229292 0.011669269763 
-2.4659969807 0.15550839901 0.011920480058 -2.4663009644 0.15525630116 0.012245530263 -2.4652059078 0.15613029897 0.0111112101 
-2.464812994 0.1564231962 0.01072616037 -2.4644110203 0.15671209991 0.010343469679 -2.4647340775 0.15648110211 0.010649619624 
-2.4630839825 0.15759429336 0.009155003354 -2.463105917 0.15758010745 0.0091743804514 -2.4636130333 0.15725520253 0.0096157323569 
-2.4638381004 0.15710639954 0.0098162321374 -2.4639189243 0.15705180168 0.0098896734416 -2.4628310204 0.15775029361 0.0089411428198 
-2.4623029232 0.15806519985 0.0085056461394 -2.4613609314 0.15858870745 0.00776829198 -2.4614870548 0.15852150321 0.0078639220446 
-2.4617950916 0.15835359693 0.0081016952172 -2.4622309208 0.15810650587 0.0084481053054 -2.4607288837 0.15891510248 0.0072984849103 
-2.4606599808 0.15894940495 0.0072485730052 -2.4595739841 0.15946060419 0.0064915870316 -2.459635973 0.15943269432 0.0065336138941 
-2.4598209858 0.1593490988 0.0066590141505 -2.460474968 0.15904019773 0.0071159899235 -2.4589710236 0.15972089767 0.0060947029851 
-2.45865798 0.15984930098 0.0058954311535 -2.4585180283 0.15990559757 0.0058072730899 -2.458108902 0.16006469727 0.0055551538244 
-2.4567890167 0.16052989662 0.0047887940891 -2.4573290348 0.16034850478 0.005093656946 -2.4573740959 0.16033260524 0.0051198299043 
-2.4577300549 0.16020590067 0.0053276889957 -2.4565529823 0.16060550511 0.0046589327976 -2.4562079906 0.16071179509 0.0044733658433 
-2.4550189972 0.16104240716 0.0038675209507 -2.455024004 0.16104100645 0.0038702350575 -2.455796957 0.16083230078 0.0042582079768 
-2.4558370113 0.16082090139 0.0042787310667 -2.4542479515 0.16122730076 0.0035023519304 -2.454875946 0.16107830405 0.0037984100636 
-2.4529309273 0.16149190068 0.0029254839756 -2.453469038 0.16139160097 0.0031540519558 -2.4538099766 0.16132250428 0.0033039960545 
-2.4539070129 0.16130200028 0.0033473549411 -2.4526860714 0.16153390706 0.0028248829767 -2.4525818825 0.161551103 0.0027826819569 
-2.4509599209 0.16176879406 0.0021698800847 -2.4511079788 0.16175289452 0.0022223850247 -2.4513370991 0.16172669828 0.0023046920542 
-2.4519000053 0.16165429354 0.0025144428946 -2.4519469738 0.16164760292 0.0025328579359 -2.4503130913 0.16182939708 0.001948417048 
-2.4500761032 0.16184790432 0.001870387001 -2.4495129585 0.16188380122 0.0016922999639 -2.4499700069 0.16185550392 0.0018361220136 
-2.4479811192 0.16192500293 0.0012553350534 -2.4487071037 0.16191570461 0.0014538529795 -2.448800087 0.16191320121 0.0014803690137 
-2.4489760399 0.16190759838 0.0015313460026 -2.4764580727 -0.13457660377 0.036880709231 -2.4760479927 -0.13837389648 0.032478179783 
-2.4621679783 -0.1581428051 0.0083973770961 -2.4576740265 -0.16022610664 0.0052947788499 -2.448800087 -0.16191320121 0.0014803720405 
-2.4486470222 -0.16191719472 0.0014367030235 -2.4479811192 -0.16192500293 0.0012553350534 -2.4489760399 -0.16190759838 0.0015313279582 
-2.4500920773 -0.16184669733 0.0018756859936 -2.4500761032 -0.16184790432 0.001870344975 -2.4493699074 -0.16189110279 0.0016486509703 
-2.4499690533 -0.16185550392 0.0018360059476 -2.4508121014 -0.16178399324 0.0021180920303 -2.4509599209 -0.16176879406 0.0021698661149 
-2.4513370991 -0.16172669828 0.0023046680726 -2.4515318871 -0.16170290112 0.0023761929478 -2.4519479275 -0.16164760292 0.0025330269709 
-2.4522500038 -0.16160340607 0.0026503570843 -2.4525818825 -0.161551103 0.0027827420272 -2.4529299736 -0.16149200499 0.002925246954 
-2.4529678822 -0.16148529947 0.0029409960844 -2.4536850452 -0.16134829819 0.003248564899 -2.4538099766 -0.16132250428 0.0033038989641 
-2.4539070129 -0.16130210459 0.0033472590148 -2.4544019699 -0.16119219363 0.0035735680722 -2.454875946 -0.16107830405 0.003798474092 
-2.4558370113 -0.1608210057 0.0042786421254 -2.4551188946 -0.16101670265 0.003916554153 -2.4550189972 -0.16104230285 0.003867614083 
-2.4562079906 -0.16071179509 0.0044733388349 -2.4565529823 -0.16060550511 0.0046589327976 -2.456788063 -0.16053010523 0.0047884359956 
-2.4569020271 -0.16049270332 0.004851966165 -2.4573740959 -0.16033250093 0.0051200920716 -2.459197998 -0.1596249938 0.0062419390306 
-2.4595739841 -0.15946060419 0.0064915558323 -2.4577291012 -0.16020609438 0.0053272498772 -2.4584391117 -0.15993690491 0.0057579418644 
-2.4585170746 -0.15990580618 0.0058068940416 -2.45865798 -0.15984940529 0.0058952081017 -2.459635973 -0.15943269432 0.0065336669795 
-2.4599499702 -0.1592900008 0.0067472942173 -2.460474968 -0.15904019773 0.0071159671061 -2.460695982 -0.15893149376 0.0072745741345 
-2.4607288837 -0.15891520679 0.0072983722202 -2.4613609314 -0.15858879685 0.0077680791728 -2.4614350796 -0.15854929388 0.0078243846074 
-2.4617938995 -0.15835359693 0.0081015974283 -2.4622309208 -0.15810659528 0.0084480429068 -2.4628310204 -0.15775069594 0.0089406473562 
-2.4628939629 -0.1577116996 0.008994246833 -2.4638381004 -0.15710639954 0.0098163271323 -2.4636130333 -0.15725520253 0.0096157323569 
-2.4630839825 -0.15759390593 0.0091555407271 -2.4639189243 -0.15705169737 0.0098898401484 -2.4644889832 -0.15665690601 0.010416789912 
-2.4647340775 -0.15648129582 0.010649460368 -2.464812994 -0.1564231962 0.010726099834 -2.4655280113 -0.15588249266 0.011434949934 
-2.4652659893 -0.15608499944 0.011170489714 -2.4674921036 -0.15419889987 0.013593349606 -2.4657568932 -0.15570229292 0.011669269763 
-2.4660260677 -0.15548489988 0.011950789951 -2.4663009644 -0.15525640547 0.01224538032 -2.4666659832 -0.15494540334 0.012644399889 
-2.4667680264 -0.15485629439 0.012758229859 -2.4670519829 -0.15460370481 0.013080130331 -2.4675409794 -0.15415340662 0.013650869951 
-2.4677801132 -0.15392529964 0.013938509859 -2.468198061 -0.15351240337 0.014456720091 -2.4684829712 -0.15322180092 0.014819820412 
-2.4683799744 -0.15332740545 0.014688000083 -2.4691829681 -0.15246979892 0.015753509477 -2.4691619873 -0.15249429643 0.015723319724 
-2.4688849449 -0.15279650688 0.015348929912 -2.4695529938 -0.15205070376 0.016270600259 -2.4698140621 -0.15174350142 0.016648229212 
-2.4701991081 -0.15127469599 0.01722236909 -2.4704399109 -0.15097039938 0.017593730241 -2.4699480534 -0.15158210695 0.016846120358 
-2.4706749916 -0.15066580474 0.017964569852 -2.4708240032 -0.15046790242 0.018204899505 -2.4710390568 -0.15017589927 0.01855899021 
-2.4716091156 -0.14936099946 0.019543319941 -2.4713609219 -0.14972229302 0.019107550383 -2.4714260101 -0.14963009953 0.01921889931 
-2.4720079899 -0.14875289798 0.020274290815 -2.4720780849 -0.14864289761 0.020406190306 -2.472151041 -0.14852720499 0.020544910803 
-2.4726140499 -0.14775939286 0.021462859586 -2.4726629257 -0.14767469466 0.021563900635 -2.4726951122 -0.1476188004 0.021630549803 
-2.4731450081 -0.14680409431 0.022600049153 -2.4731769562 -0.1467435956 0.022671829909 -2.4732699394 -0.14656619728 0.022882459685 
-2.4735970497 -0.14591750503 0.023650990799 -2.4736990929 -0.14570710063 0.023899730295 -2.4741768837 -0.14465160668 0.025145059451 
-2.4742929935 -0.14437690377 0.025468340144 -2.474406004 -0.14410050213 0.025793340057 -2.4738030434 -0.14548540115 0.024161780253 
-2.4740169048 -0.14501589537 0.024715740234 -2.4747369289 -0.14324130118 0.026801949367 -2.4747619629 -0.14317239821 0.026882810518 
-2.4746110439 -0.14357860386 0.02640629001 -2.4750010967 -0.14249010384 0.027681870386 -2.4750859737 -0.1422315985 0.027984270826 
-2.475135088 -0.14207920432 0.028162410483 -2.4753770828 -0.14127990603 0.029095880687 -2.4753460884 -0.14138759673 0.02897025086 
-2.475646019 -0.14027290046 0.030269840732 -2.4756350517 -0.14031900465 0.030216060579 -2.4754860401 -0.14089100063 0.029549479485 
-2.4757869244 -0.13967749476 0.030962899327 -2.4758579731 -0.13934999704 0.031343828887 -2.4760360718 -0.13843910396 0.032402399927 
-2.4758999348 -0.13914769888 0.031579080969 -2.4762330055 -0.13717660308 0.033867709339 -2.4762039185 -0.1373911947 0.033618830144 
-2.4761090279 -0.13801370561 0.032896351069 -2.4762721062 -0.1368727982 0.034220021218 -2.4764120579 -0.13541279733 0.035912171006 
-2.4764471054 -0.13481649756 0.036602899432 -2.4763250351 -0.13640390337 0.034763671458 -2.4763479233 -0.13617670536 0.035027001053 
-2.4763879776 -0.13572640717 0.035548858345 -2.4764809608 -0.13342499733 0.038214299828 -2.4764809608 -0.13345059752 0.038184709847 
-2.4764640331 -0.13441950083 0.037062618881 -2.4475109577 0.16192500293 0.0011351279682 -2.4475109577 -0.16192500293 0.0011351279682 
-2.4462120533 0.16192500293 0.00083507422823 -2.4462120533 -0.16192500293 0.00083507422823 -2.4449019432 0.16192500293 0.00058056111448 
-2.4449019432 -0.16192500293 0.00058056111448 -2.443584919 0.16192500293 0.00037189890281 -2.443584919 -0.16192500293 0.00037189890281 
-2.4422609806 0.16192500293 0.00020934190252 -2.4422609806 -0.16192500293 0.00020934190252 -2.4409320354 0.16192500293 9.3088106951e-05 
-2.4409320354 -0.16192500293 9.3088106951e-05 -2.4395999908 0.16192500293 2.3279120796e-05 -2.4395999908 -0.16192500293 2.3279120796e-05 
-2.4382669926 0.16192500293 0 -2.4382669926 -0.16192500293 0 
METADATA
INFORMATION 2
NAME L2_NORM_RANGE LOCATION vtkDataArray
DATA 2 2.44364 2.48039 
NAME L2_NORM_FINITE_RANGE LOCATION vtkDataArray
DATA 2 2.44364 2.48039 

CELLS 271 540
OFFSETS vtktypeint64
0 2 4 6 8 10 12 14 16 
18 20 22 24 26 28 30 32 34 
36 38 40 42 44 46 48 50 52 
54 56 58 60 62 64 66 68 70 
72 74 76 78 80 82 84 86 88 
90 92 94 96 98 100 102 104 106 
108 110 112 114 116 118 120 122 124 
126 128 130 132 134 136 138 140 142 
144 146 148 150 152 154 156 158 160 
162 164 166 168 170 172 174 176 178 
180 182 184 186 188 190 192 194 196 
198 200 202 204 206 208 210 212 214 
216 218 220 222 224 226 228 230 232 
234 236 238 240 242 244 246 248 250 
252 254 256 258 260 262 264 266 268 
270 272 274 276 278 280 282 284 286 
288 290 292 294 296 298 300 302 304 
306 308 310 312 314 316 318 320 322 
324 326 328 330 332 334 336 338 340 
342 344 346 348 350 352 354 356 358 
360 362 364 366 368 370 372 374 376 
378 380 382 384 386 388 390 392 394 
396 398 400 402 404 406 408 410 412 
414 416 418 420 422 424 426 428 430 
432 434 436 438 440 442 444 446 448 
450 452 454 456 458 460 462 464 466 
468 470 472 474 476 478 480 482 484 
486 488 490 492 494 496 498 500 502 
504 506 508 510 512 514 516 518 520 
522 524 526 528 530 532 534 536 538 
540 
CONNECTIVITY vtktypeint64
2 1 3 2 4 3 5 4 6 
7 7 8 8 9 9 5 10 6 
11 10 12 13 13 14 14 15 15 
11 16 12 17 16 0 18 18 19 
19 20 20 17 21 22 22 23 23 
24 24 0 25 21 26 25 27 28 
28 29 29 30 30 26 31 27 32 
31 33 32 34 33 35 36 36 37 
37 38 38 34 39 35 40 39 41 
40 42 41 43 42 44 43 45 46 
46 47 47 48 48 44 49 45 50 
49 51 52 52 53 53 54 54 50 
55 51 56 55 57 56 58 57 59 
58 60 59 61 62 62 63 63 64 
64 60 65 61 66 65 67 68 68 
69 69 70 70 66 71 67 72 71 
73 74 74 72 75 76 76 77 77 
78 78 79 79 73 80 75 81 80 
82 83 83 84 84 85 85 81 86 
82 87 86 88 89 89 90 90 91 
91 87 92 88 93 92 94 93 95 
94 96 97 97 98 98 99 99 95 
100 96 101 100 102 103 103 104 104 
105 105 101 106 107 107 102 108 109 
109 110 110 111 111 106 112 108 113 
112 114 115 115 116 116 117 117 118 
118 113 119 114 120 119 121 122 122 
120 123 124 124 125 125 126 126 121 
132 131 133 132 131 134 136 135 134 
137 137 138 138 136 135 139 139 140 
140 141 141 142 142 143 143 144 144 
145 145 146 146 147 147 148 148 149 
149 150 150 151 151 152 154 153 152 
155 155 154 153 156 156 157 157 158 
158 159 159 160 160 130 161 162 130 
163 163 164 164 165 165 166 166 161 
162 167 167 168 168 169 169 170 170 
171 171 172 172 173 173 174 174 129 
129 175 175 176 176 177 179 178 180 
179 177 180 178 181 181 182 182 183 
183 184 184 186 186 185 185 188 188 
189 189 190 190 191 191 192 192 193 
193 187 187 194 194 195 195 196 198 
197 196 198 200 199 197 201 201 200 
199 202 202 203 204 205 203 206 206 
204 205 207 207 208 208 209 209 211 
211 212 212 210 210 213 213 214 214 
215 215 216 216 217 217 218 218 219 
219 220 220 221 221 222 222 223 224 
225 225 226 223 227 227 228 228 224 
229 230 226 231 231 229 230 232 232 
233 233 234 236 235 234 236 238 237 
235 239 239 238 237 240 240 241 242 
128 241 243 243 242 245 244 246 245 
128 246 244 247 248 249 247 250 250 
251 251 252 252 248 249 127 254 253 
127 255 255 254 123 256 257 133 256 
258 259 257 258 260 261 259 260 262 
263 261 262 264 265 263 264 266 267 
265 266 268 269 267 268 270 271 269 

CELL_TYPES 270
3
3
3
3
3
3
3
3
3
3
3
3
3
3
3
3
3
3
3
3
3
3
3
3
3
3
3
3
3
3
3
3
3
3
3
3
3
3
3
3
3
3
3
3
3
3
3
3
3
3
3
3
3
3
3
3
3
3
3
3
3
3
3
3
3
3
3
3
3
3
3
3
3
3
3
3
3
3
3
3
3
3
3
3
3
3
3
3
3
3
3
3
3
3
3
3
3
3
3
3
3
3
3
3
3
3
3
3
3
3
3
3
3
3
3
3
3
3
3
3
3
3
3
3
3
3
3
3
3
3
3
3
3
3
3
3
3
3
3
3
3
3
3
3
3
3
3
3
3
3
3
3
3
3
3
3
3
3
3
3
3
3
3
3
3
3
3
3
3
3
3
3
3
3
3
3
3
3
3
3
3
3
3
3
3
3
3
3
3
3
3
3
3
3
3
3
3
3
3
3
3
3
3
3
3
3
3
3
3
3
3
3
3
3
3
3
3
3
3
3
3
3
3
3
3
3
3
3
3
3
3
3
3
3
3
3
3
3
3
3
3
3
3
3
3
3
3
3
3
3
3
3
3
3
3
3
3
3
3
3
3
3
3
3
3
3
3
3
3
3

CELL_DATA 270
SCALARS STLSolidLabeling float
LOOKUP_TABLE default
0 0 0 0 0 0 0 0 0 
0 0 0 0 0 0 0 0 0 
0 0 0 0 0 0 0 0 0 
0 0 0 0 0 0 0 0 0 
0 0 0 0 0 0 0 0 0 
0 0 0 0 0 0 0 0 0 
0 0 0 0 0 0 0 0 0 
0 0 0 0 0 0 0 0 0 
0 0 0 0 0 0 0 0 0 
0 0 0 0 0 0 0 0 0 
0 0 0 0 0 0 0 0 0 
0 0 0 0 0 0 0 0 0 
0 0 0 0 0 0 0 0 0 
0 0 0 0 0 0 0 0 0 
0 0 0 0 0 0 0 0 0 
0 0 0 0 0 0 0 0 0 
0 0 0 0 0 0 0 0 0 
0 0 0 0 0 0 0 0 0 
0 0 0 0 0 0 0 0 0 
0 0 0 0 0 0 0 0 0 
0 0 0 0 0 0 0 0 0 
0 0 0 0 0 0 0 0 0 
0 0 0 0 0 0 0 0 0 
0 0 0 0 0 0 0 0 0 
0 0 0 0 0 0 0 0 0 
0 0 0 0 0 0 0 0 0 
0 0 0 0 0 0 0 0 0 
0 0 0 0 0 0 0 0 0 
0 0 0 0 0 0 0 0 0 
0 0 0 0 0 0 0 0 0 

METADATA
INFORMATION 0

FIELD FieldData 1
vtkOriginalCellIds 1 270 vtkIdType
5 9 11 15 16 19 23 25 27 
31 32 35 39 41 43 47 48 50 
54 56 57 60 64 66 68 72 73 
76 80 82 84 88 90 94 95 98 
102 104 106 110 112 116 118 122 123 
126 130 132 134 138 139 142 146 148 
150 154 156 159 161 165 166 169 173 
175 177 181 182 185 189 191 193 197 
201 203 205 207 209 213 215 217 221 
222 225 229 231 233 237 238 241 245 
247 249 253 255 259 260 263 267 269 
271 275 276 279 283 285 289 291 292 
295 299 301 303 307 309 311 313 317 
319 321 325 329 331 332 335 338 340 
12639 12642 12644 12650 12652 12654 12657 12660 12662 
12665 12668 12670 12672 12675 12679 12681 12684 12687 
12690 12692 12694 12700 12702 12704 12707 12711 12713 
12718 12721 12723 12724 12727 12729 12732 12735 12737 
12742 12744 12746 12748 12756 12758 12760 12763 12765 
12767 12770 12772 12776 12779 12782 12784 12786 12788 
12792 12798 12800 12805 12807 12810 12813 12816 12819 
12821 12823 12826 12828 12832 12835 12839 12841 12843 
12846 12848 12852 12856 12858 12862 12864 12867 12873 
12876 12878 12880 12883 12886 12888 12890 12895 12897 
12900 12904 12906 12909 12913 12916 12919 12921 12924 
12928 12931 12933 12936 12938 12940 12944 12947 12951 
12953 12955 12958 12960 12965 12967 12969 12972 12974 
12978 12984 12986 12989 12991 12994 12996 12998 13002 
13004 13006 13010 13013 13014 13016 13017 13020 13021 
13024 13025 13027 13028 13030 13031 13033 13034 13037 

POINT_DATA 272
FIELD FieldData 1
vtkOriginalPointIds 1 272 vtkIdType
0 3 5 7 8 10 11 12 14 
15 16 18 19 20 22 23 24 26 
27 28 29 30 31 33 34 35 37 
38 39 41 42 43 45 46 48 49 
50 52 53 54 56 57 59 60 62 
63 64 66 67 68 70 71 72 74 
75 76 78 79 81 82 84 85 86 
88 89 90 92 93 94 96 97 98 
100 102 103 105 106 107 108 109 110 
112 113 114 116 117 118 120 121 122 
124 125 126 128 129 131 132 133 135 
136 137 139 140 141 143 144 146 147 
148 149 151 152 153 155 157 158 159 
160 161 162 164 166 167 168 169 171 
172 4786 4787 4788 4789 4790 4791 4792 4793 
4794 4795 4796 4797 4798 4799 4800 4801 4802 
4803 4804 4805 4806 4807 4808 4809 4810 4811 
4812 4813 4814 4815 4816 4817 4818 4819 4820 
4821 4822 4823 4824 4825 4826 4827 4828 4829 
4830 4831 4832 4833 4834 4835 4836 4837 4838 
4839 4840 4841 4842 4843 4844 4845 4846 4847 
4848 4849 4850 4851 4852 4853 4854 4855 4856 
4857 4858 4859 4860 4861 4862 4863 4864 4865 
4866 4867 4868 4869 4870 4871 4872 4873 4874 
4875 4876 4877 4878 4879 4880 4881 4882 4883 
4884 4885 4886 4887 4888 4889 4890 4891 4892 
4893 4894 4895 4896 4897 4898 4899 4900 4901 
4902 4903 4904 4905 4906 4907 4908 4909 4910 
4911 4912 4913 4914 4915 4916 4917 4918 4919 
4920 4921 4922 4923 4924 4925 4926 4927 4928 
4929 4930 
