# vtk DataFile Version 5.1
vtk output
ASCII
DATASET UNSTRUCTURED_GRID
POINTS 2 double
0 0.16192500293 0 0 -0.16192500293 0 
METADATA
INFORMATION 2
NAME L2_NORM_RANGE LOCATION vtkDataArray
DATA 2 0.161925 0.161925 
NAME L2_NORM_FINITE_RANGE LOCATION vtkDataArray
DATA 2 0.161925 0.161925 

CELLS 2 2
OFFSETS vtktypeint64
0 2 
CONNECTIVITY vtktypeint64
1 0 
CELL_TYPES 1
3

CELL_DATA 1
SCALARS STLSolidLabeling float
LOOKUP_TABLE default
0 
METADATA
INFORMATION 0

FIELD FieldData 1
vtkOriginalCellIds 1 1 vtkIdType
1 
POINT_DATA 2
FIELD FieldData 1
vtkOriginalPointIds 1 2 vtkIdType
0 2 
