# vtk DataFile Version 5.1
vtk output
ASCII
DATASET UNSTRUCTURED_GRID
POINTS 4 double
-2.4764809608 -0.13345059752 0.038184709847 -2.4764809608 0.13345059752 0.038184709847 -2.4382669926 0.16192500293 0 
-2.4382669926 -0.16192500293 0 
METADATA
INFORMATION 2
NAME L2_NORM_RANGE LOCATION vtkDataArray
DATA 2 2.44364 2.48037 
NAME L2_NORM_FINITE_RANGE LOCATION vtkDataArray
DATA 2 2.44364 2.48037 

CELLS 3 4
OFFSETS vtktypeint64
0 2 4 
CONNECTIVITY vtktypeint64
1 0 2 3 
CELL_TYPES 2
3
3

CELL_DATA 2
SCALARS STLSolidLabeling float
LOOKUP_TABLE default
0 0 
METADATA
INFORMATION 0

FIELD FieldData 1
vtkOriginalCellIds 1 2 vtkIdType
91 109 
POINT_DATA 4
FIELD FieldData 1
vtkOriginalPointIds 1 4 vtkIdType
65 68 79 80 
