# vtk DataFile Version 5.1
vtk output
ASCII
DATASET POLYDATA
POINTS 272 float
-2.44816 -0.161924 0.00130214 -2.44932 -0.161894 0.00163327 -2.45113 -0.16175 0.00223088 
-2.44999 0.161854 0.00184197 -2.44816 0.161924 0.00130217 -2.45134 -0.161727 0.00230486 
-2.45134 0.161727 0.0023051 -2.45655 -0.160606 0.00465893 -2.45738 -0.160332 0.00512108 
-2.45738 0.160331 0.00512243 -2.45655 0.160606 0.00465893 -2.45475 -0.16111 0.00373585 
-2.45442 -0.161188 0.00358104 -2.45583 0.160823 0.00427532 -2.45442 0.161188 0.00358152 
-2.45294 -0.16149 0.00292943 -2.45391 0.161302 0.00334721 -2.45196 0.161646 0.00253802 
-2.45804 -0.160091 0.00551296 -2.45995 -0.159289 0.00674919 -2.45867 0.159846 0.00590068 
-2.46019 -0.159179 0.00691241 -2.46019 0.159178 0.00691365 -2.46283 0.15775 0.00894118 
-2.46264 0.157867 0.00878049 -2.46183 -0.158336 0.00812603 -2.4607 0.158932 0.00727426 
-2.46284 -0.157748 0.0089442 -2.46361 -0.157255 0.00961573 -2.46361 0.157255 0.00961573 
-2.46529 -0.156066 0.0111949 -2.46529 0.156066 0.0111952 -2.4655 -0.155901 0.0114106 
-2.46554 0.155876 0.0114431 -2.46732 0.15436 0.0133891 -2.46718 -0.154485 0.0132308 
-2.46754 0.154152 0.0136531 -2.46754 -0.154151 0.013654 -2.46896 0.152714 0.0154512 
-2.46873 -0.152964 0.0151404 -2.46957 0.152026 0.0163007 -2.46957 -0.152027 0.0163001 
-2.47046 0.150943 0.0176273 -2.47014 -0.151344 0.0171371 -2.47136 0.149722 0.0191078 
-2.47136 -0.149722 0.019108 -2.47143 -0.14963 0.0192189 -2.47452 -0.143825 0.0261174 
-2.47518 -0.14194 0.0283251 -2.47518 0.141938 0.0283271 -2.47477 0.143157 0.0269003 
-2.47418 -0.144649 0.025148 -2.47418 0.144649 0.025148 -2.47359 -0.145929 0.0236373 
-2.47385 0.14539 0.0242744 -2.4729 -0.147251 0.0220685 -2.4729 0.147253 0.0220667 
-2.47249 -0.147969 0.0212126 -2.47273 0.147551 0.0217119 -2.47143 0.14963 0.0192189 
-2.47584 -0.139444 0.0312345 -2.4759 -0.139147 0.0315793 -2.47527 -0.141661 0.0286505 
-2.47549 0.140862 0.0295832 -2.4759 0.139147 0.0315804 -2.47648 -0.133451 0.0381847 
-2.47648 -0.133425 0.0382143 -2.47648 0.133425 0.0382143 -2.47648 0.133451 0.0381847 
-2.47638 -0.135866 0.0353865 -2.47634 -0.1363 0.034884 -2.47645 0.134765 0.036663 
-2.47634 0.1363 0.0348847 -2.47623 -0.137177 0.0338677 -2.47623 0.137177 0.0338677 
-2.47602 0.138513 0.0323171 -2.4416 -0.161925 0.000145417 -2.4449 -0.161925 0.000580561 
-2.4416 0.161925 0.000145417 -2.43827 0.161925 0 -2.43827 -0.161925 0 
-2.44798 -0.161925 0.00125534 -2.44798 0.161925 0.00125534 -2.4449 0.161925 0.000580561 
-2.47648 -0.133425 0.228476 -2.47648 0.133425 0.228476 -2.47599 -0.133425 0.239811 
-2.47599 0.133425 0.239811 -2.47448 -0.133425 0.251231 -2.47448 0.133425 0.251231 
-2.47196 -0.133425 0.262627 -2.47196 0.133425 0.262627 -2.46843 -0.133425 0.273932 
-2.46843 0.133425 0.273932 -2.46391 -0.133425 0.285116 -2.46391 0.133425 0.285116 
-2.4584 -0.133425 0.296148 -2.4584 0.133425 0.296148 -2.45193 -0.133425 0.307 
-2.45193 0.133425 0.307 -2.4445 -0.133425 0.317642 -2.4445 0.133425 0.317642 
-2.43613 -0.133425 0.328045 -2.43613 0.133425 0.328045 -2.42686 -0.133425 0.338183 
-2.42686 0.133425 0.338183 -2.41671 -0.133425 0.348028 -2.41671 0.133425 0.348028 
-2.40569 -0.133425 0.357553 -2.40569 0.133425 0.357553 -2.39385 -0.133425 0.366733 
-2.39385 0.133425 0.366733 -2.38121 -0.133425 0.375544 -2.38121 0.133425 0.375544 
-2.3678 -0.133425 0.383963 -2.3678 0.133425 0.383963 -2.35367 -0.133425 0.391965 
-2.35367 0.133425 0.391965 -2.33885 -0.133425 0.399532 -2.33885 0.133425 0.399532 
-2.32338 -0.133425 0.406641 -2.32338 0.133425 0.406641 -2.3073 -0.133425 0.413274 
-2.3073 0.133425 0.413274 -2.29065 -0.133425 0.419413 -2.29065 0.133425 0.419413 
-2.27348 -0.133425 0.425043 -2.27348 0.133425 0.425043 -2.25584 -0.133425 0.430147 
-2.25584 0.133425 0.430147 -2.23777 -0.133425 0.434713 -2.23777 0.133425 0.434713 
-2.21932 -0.133425 0.438727 -2.21932 0.133425 0.438727 -2.20054 -0.133425 0.44218 
-2.20054 0.133425 0.44218 -2.18147 -0.133425 0.445062 -2.18147 0.133425 0.445062 
-2.16218 -0.133425 0.447366 -2.16218 0.133425 0.447366 -2.14271 -0.133425 0.449085 
-2.14271 0.133425 0.449085 -2.12311 -0.133425 0.450214 -2.12311 0.133425 0.450214 
-2.10344 -0.133425 0.450751 -2.10344 0.133425 0.450751 -2.09547 -0.133425 0.4508 
-2.09547 0.133425 0.4508 -1.82878 0.161925 0.4508 -1.82878 -0.161925 0.4508 
0 0.161925 0.4508 0 -0.161925 0.4508 -2.11104 0.161925 0.422106 
-2.09971 0.161925 0.422286 -2.12235 0.161925 0.421721 0 0.161925 0 
-2.09547 0.161925 0.4223 -2.15605 0.161925 0.41934 -2.14486 0.161925 0.420337 
-2.13363 0.161925 0.421131 -2.18929 0.161925 0.415128 -2.17827 0.161925 0.416735 
-2.16719 0.161925 0.418139 -2.22187 0.161925 0.409083 -2.21109 0.161925 0.411303 
-2.20023 0.161925 0.413317 -2.26296 0.161925 0.398459 -2.25363 0.161925 0.40119 
-2.29107 0.161925 0.388966 -2.28187 0.161925 0.392291 -2.2725 0.161925 0.395456 
-2.24315 0.161925 0.404028 -2.23256 0.161925 0.406659 -2.44798 0.161925 0.228476 
-2.31754 0.161925 0.378046 -2.30891 0.161925 0.381842 -2.30008 0.161925 0.385483 
-2.42285 0.161925 0.298983 -2.4193 0.161925 0.303656 -2.42617 0.161925 0.294276 
-2.43475 0.161925 0.279944 -2.43212 0.161925 0.284758 -2.42926 0.161925 0.289535 
-2.34227 0.161925 0.365729 -2.33423 0.161925 0.369989 -2.32598 0.161925 0.374095 
-2.44274 0.161925 0.260975 -2.44126 0.161925 0.265261 -2.38324 0.161925 0.339015 
-2.37731 0.161925 0.343518 -2.37114 0.161925 0.347934 -2.36511 0.161925 0.352017 
-2.44626 0.161925 0.247116 -2.4453 0.161925 0.251741 -2.44413 0.161925 0.25636 
-2.43932 0.161925 0.270199 -2.43715 0.161925 0.275092 -2.35771 0.161925 0.356744 
-2.3501 0.161925 0.361314 -2.39964 0.161925 0.324983 -2.39441 0.161925 0.329746 
-2.38894 0.161925 0.334424 -2.44787 0.161925 0.233164 -2.44755 0.161925 0.237831 
-2.44701 0.161925 0.24248 -2.41391 0.161925 0.310176 -2.40939 0.161925 0.315199 
-2.40464 0.161925 0.320134 -2.41818 0.161925 0.305063 0 -0.161925 0 
-2.09547 -0.161925 0.4223 -2.44798 -0.161925 0.228476 -2.25363 -0.161925 0.40119 
-2.26203 -0.161925 0.398739 -2.27032 -0.161925 0.396161 -2.10632 -0.161925 0.422206 
-2.11712 -0.161925 0.421925 -2.12786 -0.161925 0.421458 -2.13855 -0.161925 0.420809 
-2.2785 -0.161925 0.393456 -2.28656 -0.161925 0.390624 -2.2945 -0.161925 0.387666 
-2.14918 -0.161925 0.419977 -2.15975 -0.161925 0.418965 -2.17025 -0.161925 0.417772 
-2.30232 -0.161925 0.38458 -2.1807 -0.161925 0.4164 -2.19107 -0.161925 0.414847 
-2.20138 -0.161925 0.413114 -2.41818 -0.161925 0.305063 -2.42144 -0.161925 0.300887 
-2.42452 -0.161925 0.296659 -2.42744 -0.161925 0.292376 -2.31002 -0.161925 0.381365 
-2.3176 -0.161925 0.378022 -2.32504 -0.161925 0.374548 -2.41723 -0.161925 0.306231 
-2.36511 -0.161925 0.352017 -2.37062 -0.161925 0.348298 -2.21161 -0.161925 0.411201 
-2.22177 -0.161925 0.409105 -2.23185 -0.161925 0.406826 -2.43018 -0.161925 0.28804 
-2.43274 -0.161925 0.283649 -2.43513 -0.161925 0.279203 -2.24185 -0.161925 0.404362 
-2.25177 -0.161925 0.40171 -2.33236 -0.161925 0.370942 -2.33954 -0.161925 0.367202 
-2.34659 -0.161925 0.363326 -2.37598 -0.161925 0.344493 -2.38119 -0.161925 0.340602 
-2.38625 -0.161925 0.336624 -2.35349 -0.161925 0.359311 -2.36026 -0.161925 0.355154 
-2.43733 -0.161925 0.274699 -2.43935 -0.161925 0.270138 -2.44126 -0.161925 0.265261 
-2.44279 -0.161925 0.260832 -2.44412 -0.161925 0.256384 -2.44526 -0.161925 0.251916 
-2.39117 -0.161925 0.332558 -2.39592 -0.161925 0.328403 -2.40052 -0.161925 0.324158 
-2.40495 -0.161925 0.319821 -2.40922 -0.161925 0.315389 -2.41331 -0.161925 0.31086 
-2.4462 -0.161925 0.247428 -2.44695 -0.161925 0.242921 -2.44749 -0.161925 0.238395 
-2.44784 -0.161925 0.233849 -2.44798 -0.161925 0.229285 
METADATA
INFORMATION 2
NAME L2_NORM_RANGE LOCATION vtkDataArray
DATA 2 0.161925 2.49115 
NAME L2_NORM_FINITE_RANGE LOCATION vtkDataArray
DATA 2 0.161925 2.49115 

LINES 277 552
OFFSETS vtktypeint64
0 2 4 6 8 10 12 14 16 
18 20 22 24 26 28 30 32 34 
36 38 40 42 44 46 48 50 52 
54 56 58 60 62 64 66 68 70 
72 74 76 78 80 82 84 86 88 
90 92 94 96 98 100 102 104 106 
108 110 112 114 116 118 120 122 124 
126 128 130 132 134 136 138 140 142 
144 146 148 150 152 154 156 158 160 
162 164 166 168 170 172 174 176 178 
180 182 184 186 188 190 192 194 196 
198 200 202 204 206 208 210 212 214 
216 218 220 222 224 226 228 230 232 
234 236 238 240 242 244 246 248 250 
252 254 256 258 260 262 264 266 268 
270 272 274 276 278 280 282 284 286 
288 290 292 294 296 298 300 302 304 
306 308 310 312 314 316 318 320 322 
324 326 328 330 332 334 336 338 340 
342 344 346 348 350 352 354 356 358 
360 362 364 366 368 370 372 374 376 
378 380 382 384 386 388 390 392 394 
396 398 400 402 404 406 408 410 412 
414 416 418 420 422 424 426 428 430 
432 434 436 438 440 442 444 446 448 
450 452 454 456 458 460 462 464 466 
468 470 472 474 476 478 480 482 484 
486 488 490 492 494 496 498 500 502 
504 506 508 510 512 514 516 518 520 
522 524 526 528 530 532 534 536 538 
540 542 544 546 548 550 552 
CONNECTIVITY vtktypeint64
0 1 1 2 3 4 2 5 6 
3 7 8 9 10 11 7 12 11 
10 13 13 14 15 12 14 16 5 
15 16 17 17 6 8 18 18 19 
20 9 19 21 22 20 23 24 21 
25 24 26 26 22 25 27 27 28 
29 23 28 30 31 29 30 32 33 
31 34 33 32 35 36 34 35 37 
38 36 37 39 40 38 39 41 42 
40 41 43 44 42 43 45 45 46 
47 48 49 50 51 47 50 52 53 
51 52 54 55 53 54 56 57 55 
56 58 46 57 58 59 59 44 60 
61 48 62 62 60 63 49 64 63 
65 66 67 68 69 65 70 69 68 
71 71 72 73 70 72 74 61 73 
74 75 75 64 76 77 78 79 80 
76 81 0 4 82 77 81 82 83 
83 78 66 84 85 67 84 86 87 
85 86 88 89 87 88 90 91 89 
90 92 93 91 92 94 95 93 94 
96 97 95 96 98 99 97 98 100 
101 99 100 102 103 101 102 104 105 
103 104 106 107 105 106 108 109 107 
108 110 111 109 110 112 113 111 112 
114 115 113 114 116 117 115 116 118 
119 117 118 120 121 119 120 122 123 
121 122 124 125 123 124 126 127 125 
126 128 129 127 128 130 131 129 130 
132 133 131 132 134 135 133 134 136 
137 135 136 138 139 137 138 140 141 
139 140 142 143 141 142 144 145 143 
144 146 147 145 148 147 146 149 150 
148 149 151 151 150 152 153 154 152 
150 155 155 79 156 148 153 156 157 
158 158 159 159 154 160 161 161 162 
162 157 163 164 164 165 165 160 166 
167 168 169 169 170 170 166 167 171 
171 172 172 163 82 173 174 175 175 
176 176 168 177 178 179 177 180 181 
181 182 182 179 183 184 184 185 185 
174 186 187 188 189 189 190 190 191 
192 193 193 194 194 186 187 195 195 
196 196 180 191 197 197 198 198 183 
199 200 200 201 201 188 202 203 173 
202 203 204 204 192 205 206 206 207 
207 199 178 208 208 205 155 209 209 
80 209 151 149 210 211 81 212 213 
213 214 210 215 215 216 216 217 217 
218 214 219 219 220 220 221 218 222 
222 223 223 224 221 225 224 226 226 
227 227 228 229 230 230 231 231 232 
225 233 233 234 234 235 236 229 237 
238 228 239 239 240 240 241 232 242 
242 243 243 244 241 245 245 246 246 
212 235 247 247 248 248 249 238 250 
250 251 251 252 249 253 253 254 254 
237 244 255 255 256 256 257 257 258 
258 259 259 260 252 261 261 262 262 
263 263 264 264 265 265 266 266 236 
260 267 267 268 268 269 269 270 270 
271 271 211 
CELL_DATA 276
SCALARS STLSolidLabeling float
LOOKUP_TABLE default
0 0 0 0 0 0 0 0 0 
0 0 0 0 0 0 0 0 0 
0 0 0 0 0 0 0 0 0 
0 0 0 0 0 0 0 0 0 
0 0 0 0 0 0 0 0 0 
0 0 0 0 0 0 0 0 0 
0 0 0 0 0 0 0 0 0 
0 0 0 0 0 0 0 0 0 
0 0 0 0 0 0 0 0 0 
0 0 0 0 0 0 0 0 0 
0 0 0 0 0 0 0 0 0 
0 0 0 0 0 0 0 0 0 
0 0 0 0 0 0 0 0 0 
0 0 0 0 0 0 0 0 0 
0 0 0 0 0 0 0 0 0 
0 0 0 0 0 0 0 0 0 
0 0 0 0 0 0 0 0 0 
0 0 0 0 0 0 0 0 0 
0 0 0 0 0 0 0 0 0 
0 0 0 0 0 0 0 0 0 
0 0 0 0 0 0 0 0 0 
0 0 0 0 0 0 0 0 0 
0 0 0 0 0 0 0 0 0 
0 0 0 0 0 0 0 0 0 
0 0 0 0 0 0 0 0 0 
0 0 0 0 0 0 0 0 0 
0 0 0 0 0 0 0 0 0 
0 0 0 0 0 0 0 0 0 
0 0 0 0 0 0 0 0 0 
0 0 0 0 0 0 0 0 0 
0 0 0 0 0 0 
METADATA
INFORMATION 0

FIELD FieldData 1
vtkOriginalCellIds 1 276 vtkIdType
0 1 2 3 4 5 6 7 8 
9 10 11 12 13 14 15 16 17 
18 19 20 21 22 23 24 25 26 
27 28 29 30 31 32 33 34 35 
36 37 38 39 40 41 42 43 44 
45 46 47 48 49 50 51 52 53 
54 55 56 57 58 59 60 61 62 
63 64 65 66 67 68 69 70 71 
72 73 74 75 76 77 78 79 80 
81 82 83 84 85 86 87 88 89 
90 91 92 93 94 95 96 97 98 
99 100 101 102 103 104 105 106 107 
108 109 110 111 112 113 114 115 116 
117 118 119 120 121 122 123 124 125 
126 127 128 129 130 131 132 133 134 
135 136 137 138 139 140 141 142 143 
144 145 146 147 148 149 150 151 152 
153 154 155 156 157 158 159 160 161 
162 163 164 165 166 167 168 169 170 
171 172 173 174 175 176 177 178 179 
180 181 182 183 184 185 186 187 188 
189 190 191 192 193 194 195 196 197 
198 199 200 201 202 203 204 205 206 
207 208 209 210 211 212 213 214 215 
216 217 218 219 220 221 222 223 224 
225 226 227 228 229 230 231 232 233 
234 235 236 237 238 239 240 241 242 
243 244 245 246 247 248 249 250 251 
252 253 254 255 256 257 258 259 260 
261 262 263 264 265 266 267 268 269 
270 271 272 273 274 275 
POINT_DATA 272
FIELD FieldData 1
vtkOriginalPointIds 1 272 vtkIdType
0 1 2 3 4 5 6 7 8 
9 10 11 12 13 14 15 16 17 
18 19 20 21 22 23 24 25 26 
27 28 29 30 31 32 33 34 35 
36 37 38 39 40 41 42 43 44 
45 46 47 48 49 50 51 52 53 
54 55 56 57 58 59 60 61 62 
63 64 65 66 67 68 69 70 71 
72 73 74 75 76 77 78 79 80 
81 82 83 84 85 86 87 88 89 
90 91 92 93 94 95 96 97 98 
99 100 101 102 103 104 105 106 107 
108 109 110 111 112 113 114 115 116 
117 118 119 120 121 122 123 124 125 
126 127 128 129 130 131 132 133 134 
135 136 137 138 139 140 141 142 143 
144 145 146 147 148 149 150 151 152 
153 154 155 156 157 158 159 160 161 
162 163 164 165 166 167 168 169 170 
171 172 173 174 175 176 177 178 179 
180 181 182 183 184 185 186 187 188 
189 190 191 192 193 194 195 196 197 
198 199 200 201 202 203 204 205 206 
207 208 209 210 211 212 213 214 215 
216 217 218 219 220 221 222 223 224 
225 226 227 228 229 230 231 232 233 
234 235 236 237 238 239 240 241 242 
243 244 245 246 247 248 249 250 251 
252 253 254 255 256 257 258 259 260 
261 262 263 264 265 266 267 268 269 
270 271 
