# vtk DataFile Version 5.1
vtk output
ASCII
DATASET POLYDATA
POINTS 4 float
-7.33423 1.524 2.0574 -7.33423 -1.524 2.0574 -7.33423 1.524 -0.0762 
-7.33423 -1.524 -0.0762 
METADATA
INFORMATION 2
NAME L2_NORM_RANGE LOCATION vtkDataArray
DATA 2 7.49128 7.7683 
NAME L2_NORM_FINITE_RANGE LOCATION vtkDataArray
DATA 2 7.49128 7.7683 

LINES 5 8
OFFSETS vtktypeint64
0 2 4 6 8 
CONNECTIVITY vtktypeint64
0 1 2 0 1 3 3 2 
CELL_DATA 4
SCALARS STLSolidLabeling float
LOOKUP_TABLE default
0 0 0 0 
METADATA
INFORMATION 0

FIELD FieldData 1
vtkOriginalCellIds 1 4 vtkIdType
0 1 2 3 
POINT_DATA 4
FIELD FieldData 1
vtkOriginalPointIds 1 4 vtkIdType
0 1 2 3 
