# vtk DataFile Version 5.1
vtk output
ASCII
DATASET POLYDATA
POINTS 8 float
4.40057 1.524 2.0574 4.40057 1.524 -0.0762 -7.33423 1.524 2.0574 
-7.33423 1.524 -0.0762 4.40057 -1.524 2.0574 4.40057 -1.524 -0.0762 
-7.33423 -1.524 2.0574 -7.33423 -1.524 -0.0762 
METADATA
INFORMATION 2
NAME L2_NORM_RANGE LOCATION vtkDataArray
DATA 2 4.65762 7.7683 
NAME L2_NORM_FINITE_RANGE LOCATION vtkDataArray
DATA 2 4.65762 7.7683 

LINES 9 16
OFFSETS vtktypeint64
0 2 4 6 8 10 12 14 16 

CONNECTIVITY vtktypeint64
0 1 2 0 1 3 3 2 4 
5 6 4 5 7 7 6 
CELL_DATA 8
SCALARS STLSolidLabeling float
LOOKUP_TABLE default
0 0 0 0 0 0 0 0 
METADATA
INFORMATION 0

