# vtk DataFile Version 5.1
vtk output
ASCII
DATASET UNSTRUCTURED_GRID
POINTS 4 double
-7.3342308998 -1.5240000486 -0.076200000942 4.4005689621 -1.5240000486 -0.076200000942 4.4005689621 1.5240000486 -0.076200000942 
-7.3342308998 1.5240000486 -0.076200000942 
METADATA
INFORMATION 2
NAME L2_NORM_RANGE LOCATION vtkDataArray
DATA 2 4.65762 7.49128 
NAME L2_NORM_FINITE_RANGE LOCATION vtkDataArray
DATA 2 4.65762 7.49128 

CELLS 5 8
OFFSETS vtktypeint64
0 2 4 6 8 
CONNECTIVITY vtktypeint64
0 1 2 3 3 0 1 2 
CELL_TYPES 4
3
3
3
3

CELL_DATA 4
SCALARS STLSolidLabeling float
LOOKUP_TABLE default
0 0 0 0 
METADATA
INFORMATION 0

FIELD FieldData 1
vtkOriginalCellIds 1 4 vtkIdType
2 9 16 19 
POINT_DATA 4
FIELD FieldData 1
vtkOriginalPointIds 1 4 vtkIdType
3 4 15 16 
