# vtk DataFile Version 5.1
vtk output
ASCII
DATASET POLYDATA
POINTS 414 float
-2.47648 -0.133425 0.228476 -2.4764 -0.133425 0.233005 -2.4764 0.133425 0.233005 
-2.47648 0.133425 0.228476 -2.47616 -0.133425 0.23754 -2.47616 0.133425 0.23754 
-2.47577 -0.133425 0.242086 -2.47577 0.133425 0.242086 -2.47521 -0.133425 0.246647 
-2.47521 0.133425 0.246647 -2.47448 -0.133425 0.251231 -2.47448 0.133425 0.251231 
-2.47358 -0.133425 0.255841 -2.47358 0.133425 0.255841 -2.47251 -0.133425 0.260484 
-2.47251 0.133425 0.260484 -2.47126 -0.133425 0.265165 -2.47126 0.133425 0.265165 
-2.46981 -0.133425 0.26989 -2.46981 0.133425 0.26989 -2.46817 -0.133425 0.274663 
-2.46817 0.133425 0.274663 -2.46632 -0.133425 0.279491 -2.46632 0.133425 0.279491 
-2.46424 -0.133425 0.284379 -2.46424 0.133425 0.284379 -2.46193 -0.133425 0.289333 
-2.46193 0.133425 0.289333 -2.45937 -0.133425 0.294356 -2.45937 0.133425 0.294356 
-2.45654 -0.133425 0.299455 -2.45654 0.133425 0.299455 -2.45343 -0.133425 0.304635 
-2.45343 0.133425 0.304635 -2.45001 -0.133425 0.3099 -2.45001 0.133425 0.3099 
-2.44626 -0.133425 0.315253 -2.44626 0.133425 0.315253 -2.44215 -0.133425 0.3207 
-2.44215 0.133425 0.3207 -2.43766 -0.133425 0.326242 -2.43766 0.133425 0.326242 
-2.43276 -0.133425 0.331881 -2.43276 0.133425 0.331881 -2.42741 -0.133425 0.337619 
-2.42741 0.133425 0.337619 -2.42157 -0.133425 0.343454 -2.42157 0.133425 0.343454 
-2.41521 -0.133425 0.349385 -2.41521 0.133425 0.349385 -2.40828 -0.133425 0.355407 
-2.40828 0.133425 0.355407 -2.40074 -0.133425 0.361513 -2.40074 0.133425 0.361513 
-2.39253 -0.133425 0.367692 -2.39253 0.133425 0.367692 -2.38362 -0.133425 0.373932 
-2.38362 0.133425 0.373932 -2.37394 -0.133425 0.380214 -2.37394 0.133425 0.380214 
-2.36345 -0.133425 0.386515 -2.36345 0.133425 0.386515 -2.35209 -0.133425 0.392808 
-2.35209 0.133425 0.392808 -2.33982 -0.133425 0.399058 -2.33982 0.133425 0.399058 
-2.32659 -0.133425 0.405225 -2.32659 0.133425 0.405225 -2.31237 -0.133425 0.411261 
-2.31237 0.133425 0.411261 -2.29712 -0.133425 0.417112 -2.29712 0.133425 0.417112 
-2.28083 -0.133425 0.422717 -2.28083 0.133425 0.422717 -2.26351 -0.133425 0.428009 
-2.26351 0.133425 0.428009 -2.24562 -0.133425 0.432809 -2.24562 0.133425 0.432809 
-2.22732 -0.133425 0.437063 -2.22732 0.133425 0.437063 -2.20868 -0.133425 0.44076 
-2.20868 0.133425 0.44076 -2.18973 -0.133425 0.443889 -2.18973 0.133425 0.443889 
-2.17053 -0.133425 0.446443 -2.17053 0.133425 0.446443 -2.15113 -0.133425 0.448415 
-2.15113 0.133425 0.448415 -2.13158 -0.133425 0.449799 -2.13158 0.133425 0.449799 
-2.11193 -0.133425 0.450592 -2.11193 0.133425 0.450592 -2.09547 -0.133425 0.4508 
-2.09547 0.133425 0.4508 -2.4762 0.137422 0.0335829 -2.47611 0.138014 0.0328965 
-2.47569 0.140079 0.0304951 -2.47565 0.140273 0.0302696 -2.47535 0.141383 0.0289758 
-2.47535 0.141388 0.0289694 -2.47071 0.150625 0.0180137 -2.47067 0.150666 0.017964 
-2.46999 0.151538 0.0169003 -2.46995 0.151583 0.0168454 -2.46923 0.152416 0.0158197 
-2.46918 0.15247 0.0157528 -2.46845 0.15326 0.0147718 -2.46838 0.153328 0.0146876 
-2.46763 0.15407 0.0137562 -2.46754 0.154153 0.0136511 -2.46678 0.154845 0.0127727 
-2.46667 0.154945 0.0126445 -2.45982 0.159349 0.00665901 -2.45964 0.159433 0.00653361 
-2.44798 -0.161925 0.00125534 -2.44865 -0.161917 0.0014367 -2.4488 0.161913 0.00148037 
-2.44871 0.161916 0.00145385 -2.4488 -0.161913 0.00148037 -2.44951 0.161884 0.0016923 
-2.44937 -0.161891 0.00164865 -2.45008 0.161848 0.00187039 -2.45008 -0.161848 0.00187034 
-2.45009 -0.161847 0.00187569 -2.45081 -0.161784 0.00211809 -2.45134 -0.161727 0.00230467 
-2.45134 0.161727 0.00230469 -2.45111 0.161753 0.00222239 -2.45031 0.161829 0.00194842 
-2.45153 -0.161703 0.00237619 -2.45225 -0.161603 0.00265036 -2.4519 0.161654 0.00251444 
-2.45258 -0.161551 0.00278274 -2.45258 0.161551 0.00278268 -2.45297 -0.161485 0.002941 
-2.45369 -0.161348 0.00324856 -2.45502 0.161041 0.00387024 -2.45502 0.161042 0.00386752 
-2.45425 0.161227 0.00350235 -2.4544 -0.161192 0.00357357 -2.45502 -0.161042 0.00386761 
-2.45381 0.161323 0.003304 -2.45381 -0.161323 0.0033039 -2.45347 0.161392 0.00315405 
-2.45269 0.161534 0.00282488 -2.4569 -0.160493 0.00485197 -2.45737 -0.160333 0.00512009 
-2.45737 0.160333 0.00511983 -2.45733 0.160349 0.00509366 -2.45655 -0.160606 0.00465893 
-2.45512 -0.161017 0.00391655 -2.45584 -0.160821 0.00427812 -2.4558 0.160832 0.00425821 
-2.45621 -0.160712 0.00447334 -2.45621 0.160712 0.00447337 -2.45655 0.160606 0.00465893 
-2.45767 -0.160226 0.00529478 -2.45844 -0.159937 0.00575794 -2.45811 0.160065 0.00555515 
-2.45852 -0.159906 0.00580689 -2.45852 0.159906 0.00580727 -2.4592 -0.159625 0.00624194 
-2.45897 0.159721 0.0060947 -2.45964 -0.159433 0.00653367 -2.45995 -0.15929 0.00674729 
-2.4607 -0.158931 0.00727457 -2.46283 -0.157751 0.00894065 -2.46289 -0.157712 0.00899425 
-2.46361 -0.157255 0.00961573 -2.46384 0.157106 0.00981623 -2.46361 0.157255 0.00961573 
-2.46311 0.15758 0.00917438 -2.46283 0.15775 0.00894114 -2.46217 -0.158143 0.00839738 
-2.4623 0.158065 0.00850565 -2.46179 -0.158354 0.0081016 -2.4618 0.158354 0.0081017 
-2.46144 -0.158549 0.00782438 -2.46149 0.158522 0.00786392 -2.46073 -0.158915 0.00729837 
-2.46073 0.158915 0.00729848 -2.46066 0.158949 0.00724857 -2.46384 -0.157106 0.00981633 
-2.46449 -0.156657 0.0104168 -2.46441 0.156712 0.0103435 -2.46481 -0.156423 0.0107261 
-2.46481 0.156423 0.0107262 -2.46527 -0.156085 0.0111705 -2.46521 0.15613 0.0111112 
-2.46576 -0.155702 0.0116693 -2.46576 0.155702 0.0116693 -2.46603 -0.155485 0.0119508 
-2.466 0.155508 0.0119205 -2.46667 -0.154945 0.0126444 -2.46677 -0.154856 0.0127582 
-2.46749 -0.154199 0.0135933 -2.46754 -0.154153 0.0136509 -2.4682 -0.153512 0.0144567 
-2.46838 -0.153327 0.014688 -2.46888 -0.152797 0.0153489 -2.46918 -0.15247 0.0157535 
-2.46955 -0.152051 0.0162706 -2.46995 -0.151582 0.0168461 -2.4702 -0.151275 0.0172224 
-2.47067 -0.150666 0.0179646 -2.47082 -0.150468 0.0182049 -2.47136 0.149722 0.0191076 
-2.47136 -0.149722 0.0191076 -2.47143 0.14963 0.0192189 -2.47143 -0.14963 0.0192189 
-2.47201 0.148753 0.0202743 -2.47201 -0.148753 0.0202743 -2.47208 0.148632 0.020419 
-2.47208 -0.148643 0.0204062 -2.47261 0.147759 0.021463 -2.47261 -0.147759 0.0214629 
-2.47271 0.147589 0.0216665 -2.4727 -0.147619 0.0216305 -2.47318 0.146743 0.0226725 
-2.47318 -0.146744 0.0226718 -2.47336 0.146394 0.0230868 -2.47327 -0.146566 0.0228825 
-2.4737 0.145707 0.0239004 -2.4737 -0.145707 0.0238997 -2.47395 0.145174 0.0245289 
-2.4738 -0.145485 0.0241618 -2.47418 0.144651 0.0251455 -2.47418 -0.144652 0.0251451 
-2.47447 0.143932 0.0259918 -2.47429 -0.144377 0.0254683 -2.47461 0.143578 0.0264064 
-2.47461 -0.143579 0.0264063 -2.47494 0.142667 0.0274744 -2.47474 -0.143241 0.0268019 
-2.475 0.14249 0.0276815 -2.475 -0.14249 0.0276819 -2.47514 -0.142079 0.0281624 
-2.47535 -0.141388 0.0289703 -2.47549 -0.140891 0.0295495 -2.47565 -0.140273 0.0302698 
-2.47579 -0.139677 0.0309629 -2.4759 0.139148 0.0315791 -2.4759 -0.139148 0.0315791 
-2.47604 -0.138439 0.0324024 -2.47611 -0.138014 0.0328964 -2.47598 0.138759 0.0320311 
-2.47623 0.137177 0.0338677 -2.47623 -0.137177 0.0338677 -2.47627 0.136873 0.0342201 
-2.47627 -0.136873 0.03422 -2.47638 0.135815 0.0354465 -2.47635 -0.136177 0.035027 
-2.47639 0.135726 0.0355487 -2.47648 -0.133451 0.0381847 -2.47648 -0.133425 0.0382143 
-2.47648 0.133425 0.0382143 -2.47648 0.133451 0.0381847 -2.47646 -0.134577 0.0368807 
-2.47639 -0.135726 0.0355489 -2.47645 -0.134816 0.0366029 -2.47646 0.134577 0.0368807 
-2.47646 0.134448 0.0370294 -2.44798 0.161925 0.00125534 -2.44751 0.161925 0.00113513 
-2.44751 -0.161925 0.00113513 -2.44621 0.161925 0.000835074 -2.44621 -0.161925 0.000835074 
-2.4449 0.161925 0.000580561 -2.4449 -0.161925 0.000580561 -2.44358 0.161925 0.000371899 
-2.44358 -0.161925 0.000371899 -2.44226 0.161925 0.000209342 -2.44226 -0.161925 0.000209342 
-2.44093 0.161925 9.30881e-05 -2.44093 -0.161925 9.30881e-05 -2.4396 0.161925 2.32791e-05 
-2.4396 -0.161925 2.32791e-05 -2.43827 0.161925 0 -2.43827 -0.161925 0 
0 0.161925 0.4508 0 0.161925 0 -1.82878 0.161925 0.4508 
-2.09547 0.161925 0.4223 -2.44798 0.161925 0.228476 -2.12235 0.161925 0.421721 
-2.11104 0.161925 0.422106 -2.09971 0.161925 0.422286 -2.44425 0.161925 0.255905 
-2.44326 0.161925 0.259342 -2.44214 0.161925 0.26279 -2.44126 0.161925 0.265261 
-2.37282 0.161925 0.346756 -2.36649 0.161925 0.351106 -2.15605 0.161925 0.41934 
-2.14486 0.161925 0.420337 -2.13363 0.161925 0.421131 -2.44653 0.161925 0.245634 
-2.44589 0.161925 0.249054 -2.44513 0.161925 0.252477 -2.39044 0.161925 0.333175 
-2.3848 0.161925 0.337789 -2.37893 0.161925 0.342317 -2.18929 0.161925 0.415128 
-2.17827 0.161925 0.416735 -2.16719 0.161925 0.418139 -2.44775 0.161925 0.235364 
-2.44745 0.161925 0.238793 -2.44705 0.161925 0.242215 -2.43671 0.161925 0.276014 
-2.43486 0.161925 0.279728 -2.43839 0.161925 0.272368 -2.44792 0.161925 0.231927 
-2.22187 0.161925 0.409083 -2.21109 0.161925 0.411303 -2.20023 0.161925 0.413317 
-2.39584 0.161925 0.328474 -2.4399 0.161925 0.268786 -2.41818 0.161925 0.305063 
-2.41457 0.161925 0.309413 -2.41063 0.161925 0.313858 -2.43036 0.161925 0.287742 
-2.4277 0.161925 0.29197 -2.43282 0.161925 0.283513 -2.42484 0.161925 0.296199 
-2.42178 0.161925 0.30043 -2.40594 0.161925 0.318816 -2.40101 0.161925 0.323688 
-2.28187 0.161925 0.392291 -2.2725 0.161925 0.395456 -2.26296 0.161925 0.398459 
-2.25363 0.161925 0.40119 -2.24315 0.161925 0.404028 -2.23256 0.161925 0.406659 
-2.30891 0.161925 0.381842 -2.30008 0.161925 0.385483 -2.29107 0.161925 0.388966 
-2.33423 0.161925 0.369989 -2.32598 0.161925 0.374095 -2.31754 0.161925 0.378046 
-2.35771 0.161925 0.356744 -2.3501 0.161925 0.361314 -2.34227 0.161925 0.365729 
-2.36511 0.161925 0.352017 -1.82878 -0.161925 0.4508 0 -0.161925 0.4508 
0 -0.161925 0 -2.44798 -0.161925 0.228476 -2.09547 -0.161925 0.4223 
-2.10632 -0.161925 0.422206 -2.25363 -0.161925 0.40119 -2.26203 -0.161925 0.398739 
-2.27032 -0.161925 0.396161 -2.2785 -0.161925 0.393456 -2.11712 -0.161925 0.421925 
-2.12786 -0.161925 0.421458 -2.13855 -0.161925 0.420809 -2.28656 -0.161925 0.390624 
-2.2945 -0.161925 0.387666 -2.44096 -0.161925 0.266074 -2.44126 -0.161925 0.265261 
-2.14918 -0.161925 0.419977 -2.15975 -0.161925 0.418965 -2.17025 -0.161925 0.417772 
-2.4424 -0.161925 0.262008 -2.44343 -0.161925 0.258774 -2.44435 -0.161925 0.255554 
-2.1807 -0.161925 0.4164 -2.19107 -0.161925 0.414847 -2.20138 -0.161925 0.413114 
-2.44516 -0.161925 0.252349 -2.44586 -0.161925 0.249155 -2.44647 -0.161925 0.24597 
-2.21161 -0.161925 0.411201 -2.22177 -0.161925 0.409105 -2.23185 -0.161925 0.406826 
-2.31002 -0.161925 0.381365 -2.3176 -0.161925 0.378022 -2.32504 -0.161925 0.374548 
-2.41818 -0.161925 0.305063 -2.421 -0.161925 0.301466 -2.42365 -0.161925 0.297882 
-2.42615 -0.161925 0.294311 -2.24185 -0.161925 0.404362 -2.25177 -0.161925 0.40171 
-2.41663 -0.161925 0.306971 -2.36511 -0.161925 0.352017 -2.37062 -0.161925 0.348298 
-2.44697 -0.161925 0.242791 -2.44737 -0.161925 0.239616 -2.44767 -0.161925 0.236443 
-2.44787 -0.161925 0.233269 -2.44797 -0.161925 0.230091 -2.42849 -0.161925 0.290752 
-2.43068 -0.161925 0.287204 -2.43273 -0.161925 0.283667 -2.33236 -0.161925 0.370942 
-2.33954 -0.161925 0.367202 -2.34659 -0.161925 0.363326 -2.37598 -0.161925 0.344493 
-2.38119 -0.161925 0.340602 -2.38625 -0.161925 0.336624 -2.35349 -0.161925 0.359311 
-2.36026 -0.161925 0.355154 -2.43465 -0.161925 0.280138 -2.43642 -0.161925 0.276616 
-2.43806 -0.161925 0.273099 -2.39117 -0.161925 0.332558 -2.39592 -0.161925 0.328403 
-2.40052 -0.161925 0.324158 -2.30232 -0.161925 0.38458 -2.43957 -0.161925 0.269586 
-2.40489 -0.161925 0.319887 -2.40902 -0.161925 0.315598 -2.41293 -0.161925 0.311293 

METADATA
INFORMATION 2
NAME L2_NORM_RANGE LOCATION vtkDataArray
DATA 2 0.161925 2.49115 
NAME L2_NORM_FINITE_RANGE LOCATION vtkDataArray
DATA 2 0.161925 2.49115 

LINES 419 836
OFFSETS vtktypeint64
0 2 4 6 8 10 12 14 16 
18 20 22 24 26 28 30 32 34 
36 38 40 42 44 46 48 50 52 
54 56 58 60 62 64 66 68 70 
72 74 76 78 80 82 84 86 88 
90 92 94 96 98 100 102 104 106 
108 110 112 114 116 118 120 122 124 
126 128 130 132 134 136 138 140 142 
144 146 148 150 152 154 156 158 160 
162 164 166 168 170 172 174 176 178 
180 182 184 186 188 190 192 194 196 
198 200 202 204 206 208 210 212 214 
216 218 220 222 224 226 228 230 232 
234 236 238 240 242 244 246 248 250 
252 254 256 258 260 262 264 266 268 
270 272 274 276 278 280 282 284 286 
288 290 292 294 296 298 300 302 304 
306 308 310 312 314 316 318 320 322 
324 326 328 330 332 334 336 338 340 
342 344 346 348 350 352 354 356 358 
360 362 364 366 368 370 372 374 376 
378 380 382 384 386 388 390 392 394 
396 398 400 402 404 406 408 410 412 
414 416 418 420 422 424 426 428 430 
432 434 436 438 440 442 444 446 448 
450 452 454 456 458 460 462 464 466 
468 470 472 474 476 478 480 482 484 
486 488 490 492 494 496 498 500 502 
504 506 508 510 512 514 516 518 520 
522 524 526 528 530 532 534 536 538 
540 542 544 546 548 550 552 554 556 
558 560 562 564 566 568 570 572 574 
576 578 580 582 584 586 588 590 592 
594 596 598 600 602 604 606 608 610 
612 614 616 618 620 622 624 626 628 
630 632 634 636 638 640 642 644 646 
648 650 652 654 656 658 660 662 664 
666 668 670 672 674 676 678 680 682 
684 686 688 690 692 694 696 698 700 
702 704 706 708 710 712 714 716 718 
720 722 724 726 728 730 732 734 736 
738 740 742 744 746 748 750 752 754 
756 758 760 762 764 766 768 770 772 
774 776 778 780 782 784 786 788 790 
792 794 796 798 800 802 804 806 808 
810 812 814 816 818 820 822 824 826 
828 830 832 834 836 
CONNECTIVITY vtktypeint64
0 1 2 3 1 4 5 2 4 
6 7 5 6 8 9 7 8 10 
11 9 10 12 13 11 12 14 15 
13 14 16 17 15 16 18 19 17 
18 20 21 19 20 22 23 21 22 
24 25 23 24 26 27 25 26 28 
29 27 28 30 31 29 30 32 33 
31 32 34 35 33 34 36 37 35 
36 38 39 37 38 40 41 39 40 
42 43 41 42 44 45 43 44 46 
47 45 46 48 49 47 48 50 51 
49 50 52 53 51 52 54 55 53 
54 56 57 55 56 58 59 57 58 
60 61 59 60 62 63 61 62 64 
65 63 64 66 67 65 66 68 69 
67 68 70 71 69 70 72 73 71 
72 74 75 73 74 76 77 75 76 
78 79 77 78 80 81 79 80 82 
83 81 82 84 85 83 84 86 87 
85 86 88 89 87 88 90 91 89 
90 92 93 91 94 95 96 97 98 
99 100 101 102 103 104 105 106 107 
108 109 110 111 112 113 114 115 116 
117 115 118 119 116 118 120 121 119 
120 122 122 123 124 125 126 127 123 
124 127 128 128 121 125 129 129 130 
131 126 130 132 133 131 132 134 134 
135 136 137 137 138 139 140 138 141 
142 139 141 143 135 142 143 144 144 
133 145 146 147 148 149 145 140 150 
150 151 152 136 151 153 154 152 153 
149 155 154 148 155 146 156 156 157 
158 147 157 159 160 158 159 161 162 
160 161 163 113 162 163 164 164 165 
166 167 167 168 169 170 170 171 171 
172 173 166 172 174 175 173 174 176 
177 175 176 178 179 177 178 180 165 
179 180 181 181 112 168 182 182 183 
184 169 183 185 186 184 185 187 188 
186 187 189 190 188 189 191 192 190 
191 193 111 192 193 194 194 195 109 
110 195 196 196 197 107 108 197 198 
198 199 105 106 199 200 200 201 103 
104 201 202 202 203 101 102 203 204 
204 205 206 100 205 207 208 206 207 
209 210 208 209 211 212 210 211 213 
214 212 213 215 216 214 215 217 218 
216 217 219 220 218 219 221 222 220 
221 223 224 222 223 225 226 224 225 
227 228 226 227 229 230 228 229 231 
232 230 231 233 234 232 233 235 235 
236 99 234 236 237 237 238 97 98 
238 239 239 240 241 96 240 242 242 
243 243 244 95 245 245 241 246 94 
244 247 248 246 247 249 250 248 249 
251 252 250 253 254 255 256 257 253 
251 258 258 259 260 252 259 257 261 
260 256 261 117 262 262 263 264 114 
263 265 266 264 265 267 268 266 267 
269 270 268 269 271 272 270 271 273 
274 272 273 275 276 274 275 277 277 
278 278 276 254 0 3 255 279 280 
281 279 280 277 282 281 262 283 284 
285 285 286 286 282 287 288 288 289 
289 290 291 292 293 294 294 295 295 
284 296 297 297 298 298 287 299 300 
300 301 301 291 302 303 303 304 304 
293 305 306 306 307 307 296 308 309 
310 308 283 311 311 305 312 313 313 
314 314 302 315 299 290 316 316 310 
317 318 318 319 320 321 322 320 321 
323 309 322 323 324 324 317 319 325 
325 326 326 315 327 328 328 329 329 
330 330 331 331 332 332 312 333 334 
334 335 335 327 336 337 337 338 338 
333 339 340 340 341 341 336 292 342 
342 339 281 93 92 343 343 344 344 
279 278 345 345 344 346 114 347 348 
349 350 350 351 351 352 343 347 348 
353 353 354 354 355 352 356 356 357 
358 359 355 360 360 361 361 362 359 
363 363 364 364 365 362 366 366 367 
367 368 365 369 369 370 370 371 368 
372 372 373 373 374 375 376 376 377 
378 379 379 380 380 381 374 382 382 
383 383 349 384 378 385 386 371 387 
387 388 388 389 389 390 390 391 391 
346 381 392 392 393 393 394 377 395 
395 396 396 397 386 398 398 399 399 
400 397 401 401 402 402 385 394 403 
403 404 404 405 400 406 406 407 407 
408 357 409 409 375 410 358 405 410 
408 411 411 412 412 413 413 384 
CELL_DATA 418
SCALARS STLSolidLabeling float
LOOKUP_TABLE default
0 0 0 0 0 0 0 0 0 
0 0 0 0 0 0 0 0 0 
0 0 0 0 0 0 0 0 0 
0 0 0 0 0 0 0 0 0 
0 0 0 0 0 0 0 0 0 
0 0 0 0 0 0 0 0 0 
0 0 0 0 0 0 0 0 0 
0 0 0 0 0 0 0 0 0 
0 0 0 0 0 0 0 0 0 
0 0 0 0 0 0 0 0 0 
0 0 0 0 0 0 0 0 0 
0 0 0 0 0 0 0 0 0 
0 0 0 0 0 0 0 0 0 
0 0 0 0 0 0 0 0 0 
0 0 0 0 0 0 0 0 0 
0 0 0 0 0 0 0 0 0 
0 0 0 0 0 0 0 0 0 
0 0 0 0 0 0 0 0 0 
0 0 0 0 0 0 0 0 0 
0 0 0 0 0 0 0 0 0 
0 0 0 0 0 0 0 0 0 
0 0 0 0 0 0 0 0 0 
0 0 0 0 0 0 0 0 0 
0 0 0 0 0 0 0 0 0 
0 0 0 0 0 0 0 0 0 
0 0 0 0 0 0 0 0 0 
0 0 0 0 0 0 0 0 0 
0 0 0 0 0 0 0 0 0 
0 0 0 0 0 0 0 0 0 
0 0 0 0 0 0 0 0 0 
0 0 0 0 0 0 0 0 0 
0 0 0 0 0 0 0 0 0 
0 0 0 0 0 0 0 0 0 
0 0 0 0 0 0 0 0 0 
0 0 0 0 0 0 0 0 0 
0 0 0 0 0 0 0 0 0 
0 0 0 0 0 0 0 0 0 
0 0 0 0 0 0 0 0 0 
0 0 0 0 0 0 0 0 0 
0 0 0 0 0 0 0 0 0 
0 0 0 0 0 0 0 0 0 
0 0 0 0 0 0 0 0 0 
0 0 0 0 0 0 0 0 0 
0 0 0 0 0 0 0 0 0 
0 0 0 0 0 0 0 0 0 
0 0 0 0 0 0 0 0 0 
0 0 0 0 
METADATA
INFORMATION 0

