# vtk DataFile Version 5.1
vtk output
ASCII
DATASET POLYDATA
POINTS 1440 float
-1.68798 -0.120646 -2.77556e-17 -1.68863 -0.120497 -2.77556e-17 -1.68798 -0.120646 -0.0762 
-1.68733 -0.120773 -0.0762 -1.68733 -0.120773 -2.77556e-17 -1.68667 -0.120877 -0.0762 
-1.68667 -0.120877 -2.77556e-17 -1.68601 -0.120958 -0.0762 -1.68601 -0.120958 -2.77556e-17 
-1.68535 -0.121016 -0.0762 -1.68535 -0.121016 -2.77556e-17 -1.68468 -0.121051 -0.0762 
-1.68468 -0.121051 -2.77556e-17 -1.68402 -0.121063 -0.0762 -1.68402 -0.121063 -2.77556e-17 
-1.68335 -0.121051 -0.0762 -1.68335 -0.121051 -2.77556e-17 -1.68269 -0.121016 -0.0762 
-1.68269 -0.121016 -2.77556e-17 -1.68203 -0.120958 -0.0762 -1.68203 -0.120958 -2.77556e-17 
-1.68137 -0.120877 -0.0762 -1.68137 -0.120877 -2.77556e-17 -1.68071 -0.120773 -0.0762 
-1.68071 -0.120773 -2.77556e-17 -1.68006 -0.120646 -0.0762 -1.68006 -0.120646 -2.77556e-17 
-1.67941 -0.120497 -0.0762 -1.67941 -0.120497 -2.77556e-17 -1.67877 -0.120325 -0.0762 
-1.67877 -0.120325 -2.77556e-17 -1.67813 -0.12013 -0.0762 -1.67813 -0.12013 -2.77556e-17 
-1.67751 -0.119914 -0.0762 -1.67751 -0.119914 -2.77556e-17 -1.67688 -0.119676 -0.0762 
-1.67688 -0.119676 -2.77556e-17 -1.67627 -0.119416 -0.0762 -1.67627 -0.119416 -2.77556e-17 
-1.67567 -0.119135 -0.0762 -1.67567 -0.119135 -2.77556e-17 -1.67508 -0.118833 -0.0762 
-1.67508 -0.118833 -2.77556e-17 -1.67449 -0.11851 -0.0762 -1.67449 -0.11851 -2.77556e-17 
-1.67393 -0.118168 -0.0762 -1.67393 -0.118168 -2.77556e-17 -1.67337 -0.117806 -0.0762 
-1.67337 -0.117806 -2.77556e-17 -1.67282 -0.117425 -0.0762 -1.67282 -0.117425 -2.77556e-17 
-1.67229 -0.117024 -0.0762 -1.67229 -0.117024 -2.77556e-17 -1.67177 -0.116606 -0.0762 
-1.67177 -0.116606 -2.77556e-17 -1.67127 -0.11617 -0.0762 -1.67127 -0.11617 -2.77556e-17 
-1.67079 -0.115716 -0.0762 -1.67079 -0.115716 -2.77556e-17 -1.67032 -0.115246 -0.0762 
-1.67032 -0.115246 -2.77556e-17 -1.66986 -0.11476 -0.0762 -1.66986 -0.11476 -2.77556e-17 
-1.66943 -0.114258 -0.0762 -1.66943 -0.114258 -2.77556e-17 -1.66901 -0.113741 -0.0762 
-1.66901 -0.113741 -2.77556e-17 -1.66861 -0.11321 -0.0762 -1.66861 -0.11321 -2.77556e-17 
-1.66823 -0.112665 -0.0762 -1.66823 -0.112665 -2.77556e-17 -1.66787 -0.112108 -0.0762 
-1.66787 -0.112108 -2.77556e-17 -1.66752 -0.111538 -0.0762 -1.66752 -0.111538 -2.77556e-17 
-1.6672 -0.110956 -0.0762 -1.6672 -0.110956 -2.77556e-17 -1.6669 -0.110364 -0.0762 
-1.6669 -0.110364 -2.77556e-17 -1.66662 -0.109761 -0.0762 -1.66662 -0.109761 -2.77556e-17 
-1.66636 -0.109149 -0.0762 -1.66636 -0.109149 -2.77556e-17 -1.66612 -0.108528 -0.0762 
-1.66612 -0.108528 -2.77556e-17 -1.6659 -0.1079 -0.0762 -1.6659 -0.1079 -2.77556e-17 
-1.66571 -0.107264 -0.0762 -1.66571 -0.107264 -2.77556e-17 -1.66554 -0.106621 -0.0762 
-1.66554 -0.106621 -2.77556e-17 -1.66539 -0.105973 -0.0762 -1.66539 -0.105973 -2.77556e-17 
-1.66526 -0.105321 -0.0762 -1.66526 -0.105321 -2.77556e-17 -1.66516 -0.104664 -0.0762 
-1.66516 -0.104664 -2.77556e-17 -1.66507 -0.104004 -0.0762 -1.66507 -0.104004 -2.77556e-17 
-1.66502 -0.103342 -0.0762 -1.66502 -0.103342 -2.77556e-17 -1.66498 -0.102678 -0.0762 
-1.66498 -0.102678 -2.77556e-17 -1.66497 -0.102013 -0.0762 -1.66497 -0.102013 -2.77556e-17 
-1.66498 -0.101348 -0.0762 -1.68863 -0.120497 -0.0762 -1.68927 -0.120325 -2.77556e-17 
-1.68927 -0.120325 -0.0762 -1.68991 -0.12013 -2.77556e-17 -1.68991 -0.12013 -0.0762 
-1.69053 -0.119914 -2.77556e-17 -1.69053 -0.119914 -0.0762 -1.69116 -0.119676 -2.77556e-17 
-1.69116 -0.119676 -0.0762 -1.69177 -0.119416 -2.77556e-17 -1.69177 -0.119416 -0.0762 
-1.69237 -0.119135 -2.77556e-17 -1.69237 -0.119135 -0.0762 -1.69296 -0.118833 -2.77556e-17 
-1.69296 -0.118833 -0.0762 -1.69354 -0.11851 -2.77556e-17 -1.69354 -0.11851 -0.0762 
-1.69412 -0.118168 -2.77556e-17 -1.69412 -0.118168 -0.0762 -1.69467 -0.117806 -2.77556e-17 
-1.69467 -0.117806 -0.0762 -1.69522 -0.117425 -2.77556e-17 -1.69522 -0.117425 -0.0762 
-1.69575 -0.117024 -2.77556e-17 -1.69575 -0.117024 -0.0762 -1.69626 -0.116606 -2.77556e-17 
-1.69626 -0.116606 -0.0762 -1.69677 -0.11617 -2.77556e-17 -1.69677 -0.11617 -0.0762 
-1.69725 -0.115716 -2.77556e-17 -1.69725 -0.115716 -0.0762 -1.69772 -0.115246 -2.77556e-17 
-1.69772 -0.115246 -0.0762 -1.69818 -0.11476 -2.77556e-17 -1.69818 -0.11476 -0.0762 
-1.69861 -0.114258 -2.77556e-17 -1.69861 -0.114258 -0.0762 -1.69903 -0.113741 -2.77556e-17 
-1.69903 -0.113741 -0.0762 -1.69943 -0.11321 -2.77556e-17 -1.69943 -0.11321 -0.0762 
-1.69981 -0.112665 -2.77556e-17 -1.69981 -0.112665 -0.0762 -1.70018 -0.112108 -2.77556e-17 
-1.70018 -0.112108 -0.0762 -1.70052 -0.111538 -2.77556e-17 -1.70052 -0.111538 -0.0762 
-1.70084 -0.110956 -2.77556e-17 -1.70084 -0.110956 -0.0762 -1.70114 -0.110364 -2.77556e-17 
-1.70114 -0.110364 -0.0762 -1.70142 -0.109761 -2.77556e-17 -1.70142 -0.109761 -0.0762 
-1.70168 -0.109149 -2.77556e-17 -1.70168 -0.109149 -0.0762 -1.70192 -0.108528 -2.77556e-17 
-1.70192 -0.108528 -0.0762 -1.70214 -0.1079 -2.77556e-17 -1.70214 -0.1079 -0.0762 
-1.70233 -0.107264 -2.77556e-17 -1.70233 -0.107264 -0.0762 -1.7025 -0.106621 -2.77556e-17 
-1.7025 -0.106621 -0.0762 -1.70265 -0.105973 -2.77556e-17 -1.70265 -0.105973 -0.0762 
-1.70278 -0.105321 -2.77556e-17 -1.70278 -0.105321 -0.0762 -1.70289 -0.104664 -2.77556e-17 
-1.70289 -0.104664 -0.0762 -1.70297 -0.104004 -2.77556e-17 -1.70297 -0.104004 -0.0762 
-1.70302 -0.103342 -2.77556e-17 -1.70302 -0.103342 -0.0762 -1.70306 -0.102678 -2.77556e-17 
-1.70306 -0.102678 -0.0762 -1.70307 -0.102013 -2.77556e-17 -1.70307 -0.102013 -0.0762 
-1.70306 -0.101348 -2.77556e-17 -1.70306 -0.101348 -0.0762 -1.70302 -0.100684 -2.77556e-17 
-1.70302 -0.100684 -0.0762 -1.70297 -0.100021 -2.77556e-17 -1.70297 -0.100021 -0.0762 
-1.70289 -0.0993615 -2.77556e-17 -1.70289 -0.0993615 -0.0762 -1.70278 -0.0987048 -2.77556e-17 
-1.70278 -0.0987048 -0.0762 -1.70265 -0.098052 -2.77556e-17 -1.70265 -0.098052 -0.0762 
-1.7025 -0.0974041 -2.77556e-17 -1.7025 -0.0974041 -0.0762 -1.70233 -0.0967619 -2.77556e-17 
-1.70233 -0.0967619 -0.0762 -1.70214 -0.096126 -2.77556e-17 -1.70214 -0.096126 -0.0762 
-1.70192 -0.0954973 -2.77556e-17 -1.70192 -0.0954973 -0.0762 -1.70168 -0.0948765 -2.77556e-17 
-1.70168 -0.0948765 -0.0762 -1.70142 -0.0942644 -2.77556e-17 -1.70142 -0.0942644 -0.0762 
-1.70114 -0.0936618 -2.77556e-17 -1.70114 -0.0936618 -0.0762 -1.70084 -0.0930693 -2.77556e-17 
-1.70084 -0.0930693 -0.0762 -1.70052 -0.0924878 -2.77556e-17 -1.70052 -0.0924878 -0.0762 
-1.70018 -0.0919178 -2.77556e-17 -1.70018 -0.0919178 -0.0762 -1.69981 -0.0913601 -2.77556e-17 
-1.69981 -0.0913601 -0.0762 -1.69943 -0.0908154 -2.77556e-17 -1.69943 -0.0908154 -0.0762 
-1.69903 -0.0902844 -2.77556e-17 -1.69903 -0.0902844 -0.0762 -1.69861 -0.0897676 -2.77556e-17 
-1.69861 -0.0897676 -0.0762 -1.69818 -0.0892658 -2.77556e-17 -1.69818 -0.0892658 -0.0762 
-1.69772 -0.0887795 -2.77556e-17 -1.69772 -0.0887795 -0.0762 -1.69725 -0.0883093 -2.77556e-17 
-1.69725 -0.0883093 -0.0762 -1.69677 -0.0878558 -2.77556e-17 -1.69677 -0.0878558 -0.0762 
-1.69626 -0.0874196 -2.77556e-17 -1.69626 -0.0874196 -0.0762 -1.69575 -0.0870011 -2.77556e-17 
-1.69575 -0.0870011 -0.0762 -1.69522 -0.086601 -2.77556e-17 -1.69522 -0.086601 -0.0762 
-1.69467 -0.0862196 -2.77556e-17 -1.69467 -0.0862196 -0.0762 -1.69412 -0.0858574 -2.77556e-17 
-1.69412 -0.0858574 -0.0762 -1.69354 -0.085515 -2.77556e-17 -1.69354 -0.085515 -0.0762 
-1.69296 -0.0851926 -2.77556e-17 -1.69296 -0.0851926 -0.0762 -1.69237 -0.0848907 -2.77556e-17 
-1.69237 -0.0848907 -0.0762 -1.69177 -0.0846097 -2.77556e-17 -1.69177 -0.0846097 -0.0762 
-1.69116 -0.0843499 -2.77556e-17 -1.69116 -0.0843499 -0.0762 -1.69053 -0.0841116 -2.77556e-17 
-1.69053 -0.0841116 -0.0762 -1.68991 -0.0838951 -2.77556e-17 -1.68991 -0.0838951 -0.0762 
-1.68927 -0.0837007 -2.77556e-17 -1.68927 -0.0837007 -0.0762 -1.68863 -0.0835286 -2.77556e-17 
-1.68863 -0.0835286 -0.0762 -1.68798 -0.083379 -2.77556e-17 -1.68798 -0.083379 -0.0762 
-1.68733 -0.0832522 -2.77556e-17 -1.68733 -0.0832522 -0.0762 -1.68667 -0.0831481 -2.77556e-17 
-1.68667 -0.0831481 -0.0762 -1.68601 -0.0830671 -2.77556e-17 -1.68601 -0.0830671 -0.0762 
-1.68535 -0.0830092 -2.77556e-17 -1.68535 -0.0830092 -0.0762 -1.68468 -0.0829744 -2.77556e-17 
-1.68468 -0.0829744 -0.0762 -1.68402 -0.0829628 -2.77556e-17 -1.68402 -0.0829628 -0.0762 
-1.68335 -0.0829744 -2.77556e-17 -1.68335 -0.0829744 -0.0762 -1.68269 -0.0830092 -2.77556e-17 
-1.68269 -0.0830092 -0.0762 -1.68203 -0.0830671 -2.77556e-17 -1.68203 -0.0830671 -0.0762 
-1.68137 -0.0831481 -2.77556e-17 -1.68137 -0.0831481 -0.0762 -1.68071 -0.0832522 -2.77556e-17 
-1.68071 -0.0832522 -0.0762 -1.68006 -0.083379 -2.77556e-17 -1.68006 -0.083379 -0.0762 
-1.67941 -0.0835286 -2.77556e-17 -1.67941 -0.0835286 -0.0762 -1.67877 -0.0837007 -2.77556e-17 
-1.67877 -0.0837007 -0.0762 -1.67813 -0.0838951 -2.77556e-17 -1.67813 -0.0838951 -0.0762 
-1.67751 -0.0841116 -2.77556e-17 -1.67751 -0.0841116 -0.0762 -1.67688 -0.0843499 -2.77556e-17 
-1.67688 -0.0843499 -0.0762 -1.67627 -0.0846097 -2.77556e-17 -1.67627 -0.0846097 -0.0762 
-1.67567 -0.0848907 -2.77556e-17 -1.67567 -0.0848907 -0.0762 -1.67508 -0.0851926 -2.77556e-17 
-1.67508 -0.0851926 -0.0762 -1.67449 -0.085515 -2.77556e-17 -1.67449 -0.085515 -0.0762 
-1.67393 -0.0858574 -2.77556e-17 -1.67393 -0.0858574 -0.0762 -1.67337 -0.0862196 -2.77556e-17 
-1.67337 -0.0862196 -0.0762 -1.67282 -0.086601 -2.77556e-17 -1.67282 -0.086601 -0.0762 
-1.67229 -0.0870011 -2.77556e-17 -1.67229 -0.0870011 -0.0762 -1.67177 -0.0874196 -2.77556e-17 
-1.67177 -0.0874196 -0.0762 -1.67127 -0.0878558 -2.77556e-17 -1.67127 -0.0878558 -0.0762 
-1.67079 -0.0883093 -2.77556e-17 -1.67079 -0.0883093 -0.0762 -1.67032 -0.0887795 -2.77556e-17 
-1.67032 -0.0887795 -0.0762 -1.66986 -0.0892658 -2.77556e-17 -1.66986 -0.0892658 -0.0762 
-1.66943 -0.0897676 -2.77556e-17 -1.66943 -0.0897676 -0.0762 -1.66901 -0.0902844 -2.77556e-17 
-1.66901 -0.0902844 -0.0762 -1.66861 -0.0908154 -2.77556e-17 -1.66861 -0.0908154 -0.0762 
[...]
CELL_DATA 1440
SCALARS STLSolidLabeling float
LOOKUP_TABLE default
0 0 0 0 0 0 0 0 0 
0 0 0 0 0 0 0 0 0 
0 0 0 0 0 0 0 0 0 
0 0 0 0 0 0 0 0 0 
0 0 0 0 0 0 0 0 0 
0 0 0 0 0 0 0 0 0 
0 0 0 0 0 0 0 0 0 
0 0 0 0 0 0 0 0 0 
0 0 0 0 0 0 0 0 0 
0 0 0 0 0 0 0 0 0 
0 0 0 0 0 0 0 0 0 
0 0 0 0 0 0 0 0 0 
0 0 0 0 0 0 0 0 0 
0 0 0 0 0 0 0 0 0 
0 0 0 0 0 0 0 0 0 
0 0 0 0 0 0 0 0 0 
0 0 0 0 0 0 0 0 0 
0 0 0 0 0 0 0 0 0 
0 0 0 0 0 0 0 0 0 
0 0 0 0 0 0 0 0 0 
0 0 0 0 0 0 0 0 0 
0 0 0 0 0 0 0 0 0 
0 0 0 0 0 0 0 0 0 
0 0 0 0 0 0 0 0 0 
0 0 0 0 0 0 0 0 0 
0 0 0 0 0 0 0 0 0 
0 0 0 0 0 0 0 0 0 
0 0 0 0 0 0 0 0 0 
0 0 0 0 0 0 0 0 0 
0 0 0 0 0 0 0 0 0 
0 0 0 0 0 0 0 0 0 
0 0 0 0 0 0 0 0 0 
0 0 0 0 0 0 0 0 0 
0 0 0 0 0 0 0 0 0 
0 0 0 0 0 0 0 0 0 
0 0 0 0 0 0 0 0 0 
0 0 0 0 0 0 0 0 0 
0 0 0 0 0 0 0 0 0 
0 0 0 0 0 0 0 0 0 
0 0 0 0 0 0 0 0 0 
0 0 0 0 0 0 0 0 0 
0 0 0 0 0 0 0 0 0 
0 0 0 0 0 0 0 0 0 
0 0 0 0 0 0 0 0 0 
0 0 0 0 0 0 0 0 0 
0 0 0 0 0 0 0 0 0 
0 0 0 0 0 0 0 0 0 
0 0 0 0 0 0 0 0 0 
0 0 0 0 0 0 0 0 0 
0 0 0 0 0 0 0 0 0 
0 0 0 0 0 0 0 0 0 
0 0 0 0 0 0 0 0 0 
0 0 0 0 0 0 0 0 0 
0 0 0 0 0 0 0 0 0 
0 0 0 0 0 0 0 0 0 
0 0 0 0 0 0 0 0 0 
0 0 0 0 0 0 0 0 0 
0 0 0 0 0 0 0 0 0 
0 0 0 0 0 0 0 0 0 
0 0 0 0 0 0 0 0 0 
0 0 0 0 0 0 0 0 0 
0 0 0 0 0 0 0 0 0 
0 0 0 0 0 0 0 0 0 
0 0 0 0 0 0 0 0 0 
0 0 0 0 0 0 0 0 0 
0 0 0 0 0 0 0 0 0 
0 0 0 0 0 0 0 0 0 
0 0 0 0 0 0 0 0 0 
0 0 0 0 0 0 0 0 0 
0 0 0 0 0 0 0 0 0 
0 0 0 0 0 0 0 0 0 
0 0 0 0 0 0 0 0 0 
0 0 0 0 0 0 0 0 0 
0 0 0 0 0 0 0 0 0 
0 0 0 0 0 0 0 0 0 
0 0 0 0 0 0 0 0 0 
0 0 0 0 0 0 0 0 0 
0 0 0 0 0 0 0 0 0 
0 0 0 0 0 0 0 0 0 
0 0 0 0 0 0 0 0 0 
0 0 0 0 0 0 0 0 0 
0 0 0 0 0 0 0 0 0 
0 0 0 0 0 0 0 0 0 
0 0 0 0 0 0 0 0 0 
0 0 0 0 0 0 0 0 0 
0 0 0 0 0 0 0 0 0 
0 0 0 0 0 0 0 0 0 
0 0 0 0 0 0 0 0 0 
0 0 0 0 0 0 0 0 0 
0 0 0 0 0 0 0 0 0 
0 0 0 0 0 0 0 0 0 
0 0 0 0 0 0 0 0 0 
0 0 0 0 0 0 0 0 0 
0 0 0 0 0 0 0 0 0 
0 0 0 0 0 0 0 0 0 
0 0 0 0 0 0 0 0 0 
0 0 0 0 0 0 0 0 0 
0 0 0 0 0 0 0 0 0 
0 0 0 0 0 0 0 0 0 
0 0 0 0 0 0 0 0 0 
0 0 0 0 0 0 0 0 0 
0 0 0 0 0 0 0 0 0 
0 0 0 0 0 0 0 0 0 
0 0 0 0 0 0 0 0 0 
0 0 0 0 0 0 0 0 0 
0 0 0 0 0 0 0 0 0 
0 0 0 0 0 0 0 0 0 
0 0 0 0 0 0 0 0 0 
0 0 0 0 0 0 0 0 0 
0 0 0 0 0 0 0 0 0 
0 0 0 0 0 0 0 0 0 
0 0 0 0 0 0 0 0 0 
0 0 0 0 0 0 0 0 0 
0 0 0 0 0 0 0 0 0 
0 0 0 0 0 0 0 0 0 
0 0 0 0 0 0 0 0 0 
0 0 0 0 0 0 0 0 0 
0 0 0 0 0 0 0 0 0 
0 0 0 0 0 0 0 0 0 
0 0 0 0 0 0 0 0 0 
0 0 0 0 0 0 0 0 0 
0 0 0 0 0 0 0 0 0 
0 0 0 0 0 0 0 0 0 
0 0 0 0 0 0 0 0 0 
0 0 0 0 0 0 0 0 0 
0 0 0 0 0 0 0 0 0 
0 0 0 0 0 0 0 0 0 
0 0 0 0 0 0 0 0 0 
0 0 0 0 0 0 0 0 0 
0 0 0 0 0 0 0 0 0 
0 0 0 0 0 0 0 0 0 
0 0 0 0 0 0 0 0 0 
0 0 0 0 0 0 0 0 0 
0 0 0 0 0 0 0 0 0 
0 0 0 0 0 0 0 0 0 
0 0 0 0 0 0 0 0 0 
0 0 0 0 0 0 0 0 0 
0 0 0 0 0 0 0 0 0 
0 0 0 0 0 0 0 0 0 
0 0 0 0 0 0 0 0 0 
0 0 0 0 0 0 0 0 0 
0 0 0 0 0 0 0 0 0 
0 0 0 0 0 0 0 0 0 
0 0 0 0 0 0 0 0 0 
0 0 0 0 0 0 0 0 0 
0 0 0 0 0 0 0 0 0 
0 0 0 0 0 0 0 0 0 
0 0 0 0 0 0 0 0 0 
0 0 0 0 0 0 0 0 0 
0 0 0 0 0 0 0 0 0 
0 0 0 0 0 0 0 0 0 
0 0 0 0 0 0 0 0 0 
0 0 0 0 0 0 0 0 0 
0 0 0 0 0 0 0 0 0 
0 0 0 0 0 0 0 0 0 
0 0 0 0 0 0 0 0 0 
0 0 0 0 0 0 0 0 0 
0 0 0 0 0 0 0 0 0 
0 0 0 0 0 0 0 0 0 
0 0 0 0 0 0 0 0 0 

METADATA
INFORMATION 0

